
                                 *****************
                                 * O   R   C   A *
                                 *****************

           --- An Ab Initio, DFT and Semiempirical electronic structure package ---

                  #######################################################
                  #                        -***-                        #
                  #          Department of theory and spectroscopy      #
                  #               Directorship: Frank Neese             #
                  #        Max Planck Institute fuer Kohlenforschung    #
                  #                Kaiser Wilhelm Platz 1               #
                  #                 D-45470 Muelheim/Ruhr               #
                  #                      Germany                        #
                  #                                                     #
                  #                  All rights reserved                #
                  #                        -***-                        #
                  #######################################################


                         Program Version 4.2.1 -  RELEASE  -


 With contributions from (in alphabetic order):
   Daniel Aravena         : Magnetic Suceptibility
   Michael Atanasov       : Ab Initio Ligand Field Theory (pilot matlab implementation)
   Alexander A. Auer      : GIAO ZORA, VPT2
   Ute Becker             : Parallelization
   Giovanni Bistoni       : ED, misc. LED, open-shell LED, HFLD
   Martin Brehm           : Molecular dynamics
   Dmytro Bykov           : SCF Hessian
   Vijay G. Chilkuri      : MRCI spin determinant printing, contributions to CSF-ICE
   Dipayan Datta          : RHF DLPNO-CCSD density
   Achintya Kumar Dutta   : EOM-CC, STEOM-CC
   Dmitry Ganyushin       : Spin-Orbit,Spin-Spin,Magnetic field MRCI
   Miquel Garcia          : C-PCM Hessian, Gaussian charge scheme
   Yang Guo               : DLPNO-NEVPT2, CIM, IAO-localization
   Andreas Hansen         : Spin unrestricted coupled pair/coupled cluster methods
   Benjamin Helmich-Paris : CASSCF linear response (MC-RPA)
   Lee Huntington         : MR-EOM, pCC
   Robert Izsak           : Overlap fitted RIJCOSX, COSX-SCS-MP3, EOM
   Christian Kollmar      : KDIIS, OOCD, Brueckner-CCSD(T), CCSD density
   Simone Kossmann        : Meta GGA functionals, TD-DFT gradient, OOMP2, MP2 Hessian
   Martin Krupicka        : AUTO-CI
   Lucas Lang             : DCDCAS
   Dagmar Lenk            : GEPOL surface, SMD
   Dimitrios Liakos       : Extrapolation schemes; Compound Job, initial MDCI parallelization
   Dimitrios Manganas     : Further ROCIS development; embedding schemes
   Dimitrios Pantazis     : SARC Basis sets
   Taras Petrenko         : DFT Hessian,TD-DFT gradient, ASA, ECA, R-Raman, ABS, FL, XAS/XES, NRVS
   Peter Pinski           : DLPNO-MP2, DLPNO-MP2 Gradient
   Christoph Reimann      : Effective Core Potentials
   Marius Retegan         : Local ZFS, SOC
   Christoph Riplinger    : Optimizer, TS searches, QM/MM, DLPNO-CCSD(T), (RO)-DLPNO pert. Triples
   Tobias Risthaus        : Range-separated hybrids, TD-DFT gradient, RPA, STAB
   Michael Roemelt        : Original ROCIS implementation
   Masaaki Saitow         : Open-shell DLPNO-CCSD energy and density
   Barbara Sandhoefer     : DKH picture change effects
   Avijit Sen             : IP-ROCIS
   Kantharuban Sivalingam : CASSCF convergence, NEVPT2, FIC-MRCI
   Bernardo de Souza      : ESD, SOC TD-DFT
   Georgi Stoychev        : AutoAux, RI-MP2 NMR
   Willem Van den Heuvel  : Paramagnetic NMR
   Boris Wezisla          : Elementary symmetry handling
   Frank Wennmohs         : Technical directorship


 We gratefully acknowledge several colleagues who have allowed us to
 interface, adapt or use parts of their codes:
   Stefan Grimme, W. Hujo, H. Kruse,             : VdW corrections, initial TS optimization,
                  C. Bannwarth                     DFT functionals, gCP, sTDA/sTD-DF
   Ed Valeev, F. Pavosevic, A. Kumar             : LibInt (2-el integral package), F12 methods
   Garnet Chan, S. Sharma, J. Yang, R. Olivares  : DMRG
   Ulf Ekstrom                                   : XCFun DFT Library
   Mihaly Kallay                                 : mrcc  (arbitrary order and MRCC methods)
   Andreas Klamt, Michael Diedenhofen            : otool_cosmo (COSMO solvation model)
   Jiri Pittner, Ondrej Demel                    : Mk-CCSD
   Frank Weinhold                                : gennbo (NPA and NBO analysis)
   Christopher J. Cramer and Donald G. Truhlar   : smd solvation model
   Lars Goerigk                                  : TD-DFT with DH, B97 family of functionals
   V. Asgeirsson, H. Jonsson                     : NEB implementation
   FAccTs GmbH                                   : IRC, NEB, NEB-TS, Multilevel, MM, QM/MM, CI optimization
   S Lehtola, MJT Oliveira, MAL Marques          : LibXC Library


 Your calculation uses the libint2 library for the computation of 2-el integrals
 For citations please refer to: http://libint.valeyev.net

 Your ORCA version has been built with support for libXC version: 4.2.3
 For citations please refer to: https://tddft.org/programs/libxc/

 This ORCA versions uses:
   CBLAS   interface :  Fast vector & matrix operations
   LAPACKE interface :  Fast linear algebra routines
   SCALAPACK package :  Parallel linear algebra routines


----- Orbital basis set information -----
Your calculation utilizes the basis: 6-311+G(3df,2p)
   H, Li - Ne: R. Krishnan, J.S. Binkley, R. Seeger and J.A. Pople, J. Chem. Phys. 72, 650 (1980)
  Na - Ar   : A.D. McLean and G.S. Chandler J. Chem. Phys. 72, 5639, (1980)
  K  - Ca   : J-P. Blaudeau, M. P. McGrath, L.A. Curtiss and L. Radom, J. Chem. Phys. 107, 5016 (1997)
   Ga - Kr   : L. A. Curtiss, M. P. McGrath, J-P. Blandeau, N. E. Davis, R. C. Binning, Jr. L. Radom, J. Chem. Phys. 103, 6104 (1995)
  I         : M.N. Glukhovstev, A. pross, M.P. McGrath, L. Radom, J. Chem. Phys. 103, 1878 (1995)
  Polarization
  H-Ne: M.J. Frisch, J.A. Pople and J.S. Binkley, J. Chem. Phys. 80, 3265 (1984)
  H-Ne: M.J. Frisch, J.A. Pople and J.S. Binkley, J. Chem. Phys. 80, 3265 (1984)
  Diffuse
  H, Li-Cl: T. Clark, J. Chandrasekhar,  G.W. Spitznagel, P.V.R. Schleyer, J. Comp. Chem. 4, 294 (1983) ================================================================================
                                        WARNINGS
                       Please study these warnings very carefully!
================================================================================


INFO   : the flag for use of LIBINT has been found!



***************************************
The coordinates will be read from file: 
***************************************


----- Orbital basis set information -----
Your calculation utilizes the basis: 6-311+G(3df,2p)
   H, Li - Ne: R. Krishnan, J.S. Binkley, R. Seeger and J.A. Pople, J. Chem. Phys. 72, 650 (1980)
  Na - Ar   : A.D. McLean and G.S. Chandler J. Chem. Phys. 72, 5639, (1980)
  K  - Ca   : J-P. Blaudeau, M. P. McGrath, L.A. Curtiss and L. Radom, J. Chem. Phys. 107, 5016 (1997)
   Ga - Kr   : L. A. Curtiss, M. P. McGrath, J-P. Blandeau, N. E. Davis, R. C. Binning, Jr. L. Radom, J. Chem. Phys. 103, 6104 (1995)
  I         : M.N. Glukhovstev, A. pross, M.P. McGrath, L. Radom, J. Chem. Phys. 103, 1878 (1995)
  Polarization
  H-Ne: M.J. Frisch, J.A. Pople and J.S. Binkley, J. Chem. Phys. 80, 3265 (1984)
  H-Ne: M.J. Frisch, J.A. Pople and J.S. Binkley, J. Chem. Phys. 80, 3265 (1984)
  Diffuse
  H, Li-Cl: T. Clark, J. Chandrasekhar,  G.W. Spitznagel, P.V.R. Schleyer, J. Comp. Chem. 4, 294 (1983) ================================================================================
                                        WARNINGS
                       Please study these warnings very carefully!
================================================================================


WARNING: Direct SCF is incompatible with ReadInts=true
  ===> : ReadInts is disabled

INFO   : the flag for use of LIBINT has been found!

================================================================================
                                       INPUT FILE
================================================================================
NAME = test.inp
|  1> ! RKS b3lyp_g 6-311+G(3df,2p) grid6 nofinalgrid 
|  2> ! xyzfile
|  3> %maxcore 1000
|  4> 
|  5> *xyz 0 1
|  6> N  0.0       0.0       0.108827
|  7> H  0.0       0.947455 -0.253931
|  8> H  0.820520 -0.473727 -0.253931
|  9> H -0.820520 -0.473727 -0.253931
| 10> *
| 11> 
| 12> $new_job
| 13> ! RKS 6-311+G(3df,2p) grid6 nofinalgrid
| 14> !  readints nofrozencore
| 15> %scf maxiter 1 end
| 16> %maxcore 1000
| 17> %method
| 18>  Functional b3lyp_g
| 19>  ACM 0.8033, 0.2107, 0.6789
| 20>  ScalLDAC = 0.6789
| 21>  ScalMP2C = 0.3211
| 22> end
| 23> 
| 24> *xyzfile 0 1
| 25> 
| 26> 
| 27> 
| 28>                          ****END OF INPUT****
================================================================================


                 $$$$$$$$$$$$$$$$$$$$$$$$$$$$$$$$$$$$$$$$$$$$$$ 
                 $ THERE ARE  2 JOBS TO BE PROCESSED THIS RUN $
                 $$$$$$$$$$$$$$$$$$$$$$$$$$$$$$$$$$$$$$$$$$$$$$ 




                 $$$$$$$$$$$$$$$$  JOB NUMBER  1 $$$$$$$$$$$$$$


                       ****************************
                       * Single Point Calculation *
                       ****************************

---------------------------------
CARTESIAN COORDINATES (ANGSTROEM)
---------------------------------
  N      0.000000    0.000000    0.108827
  H      0.000000    0.947455   -0.253931
  H      0.820520   -0.473727   -0.253931
  H     -0.820520   -0.473727   -0.253931

----------------------------
CARTESIAN COORDINATES (A.U.)
----------------------------
  NO LB      ZA    FRAG     MASS         X           Y           Z
   0 N     7.0000    0    14.007    0.000000    0.000000    0.205653
   1 H     1.0000    0     1.008    0.000000    1.790430   -0.479860
   2 H     1.0000    0     1.008    1.550558   -0.895214   -0.479860
   3 H     1.0000    0     1.008   -1.550558   -0.895214   -0.479860

--------------------------------
INTERNAL COORDINATES (ANGSTROEM)
--------------------------------
 N      0   0   0     0.000000000000     0.00000000     0.00000000
 H      1   0   0     1.014526659871     0.00000000     0.00000000
 H      1   2   0     1.014526346377   107.95210273     0.00000000
 H      1   2   3     1.014526346377   107.95210273   243.54139934

---------------------------
INTERNAL COORDINATES (A.U.)
---------------------------
 N      0   0   0     0.000000000000     0.00000000     0.00000000
 H      1   0   0     1.917177542718     0.00000000     0.00000000
 H      1   2   0     1.917176950300   107.95210273     0.00000000
 H      1   2   3     1.917176950300   107.95210273   243.54139934

---------------------
BASIS SET INFORMATION
---------------------
There are 2 groups of distinct atoms

 Group   1 Type N   : 12s6p3d1f contracted to 5s4p3d1f pattern {63111/3111/111/1}
 Group   2 Type H   : 5s2p contracted to 5s2p pattern {31100/11}

Atom   0N    basis set group =>   1
Atom   1H    basis set group =>   2
Atom   2H    basis set group =>   2
Atom   3H    basis set group =>   2

Checking for AutoStart:
The File: test.gbw exists
Trying to determine its content:
     ... Fine, the file contains calculation information
     ... Fine, the calculation information was read
     ... Fine, the file contains a basis set
     ... Fine, the basis set was read
     ... Fine, the file contains a geometry
     ... Fine, the geometry was read
     ... Fine, the file contains a set of orbitals
     ... Fine, the orbitals can be read
     => possible old guess file was deleted
     => GBW file was renamed to GES file
     => GES file is set as startup file
     => Guess is set to MORead
     ... now leaving AutoStart

------------------------------------------------------------------------------
                           ORCA GTO INTEGRAL CALCULATION
------------------------------------------------------------------------------

                         BASIS SET STATISTICS AND STARTUP INFO

 # of primitive gaussian shells          ...   43
 # of primitive gaussian functions       ...   85
 # of contracted shells                  ...   34
 # of contracted basis functions         ...   72
 Highest angular momentum                ...    3
 Maximum contraction depth               ...    6
 Integral package used                   ... LIBINT
 Integral threshhold            Thresh   ...  1.000e-10
 Primitive cut-off              TCut     ...  1.000e-11


------------------------------ INTEGRAL EVALUATION ----------------------------


 * One electron integrals 
 Pre-screening matrix                    ... done
 Shell pair data                         ... done (   0.000 sec)

-------------------------------------------------------------------------------
                                 ORCA SCF
-------------------------------------------------------------------------------

------------
SCF SETTINGS
------------
Hamiltonian:
 Density Functional     Method          .... DFT(GTOs)
 Exchange Functional    Exchange        .... B88
   X-Alpha parameter    XAlpha          ....  0.666667
   Becke's b parameter  XBeta           ....  0.004200
 Correlation Functional Correlation     .... LYP
 LDA part of GGA corr.  LDAOpt          .... VWN-3
 Gradients option       PostSCFGGA      .... off
 Hybrid DFT is turned on
   Fraction HF Exchange ScalHFX         ....  0.200000
   Scaling of DF-GGA-X  ScalDFX         ....  0.720000
   Scaling of DF-GGA-C  ScalDFC         ....  0.810000
   Scaling of DF-LDA-C  ScalLDAC        ....  1.000000
   Perturbative correction              ....  0.000000
   Density functional embedding theory  .... OFF
   NL short-range parameter             ....  4.800000


General Settings:
 Integral files         IntName         .... test
 Hartree-Fock type      HFTyp           .... RHF
 Total Charge           Charge          ....    0
 Multiplicity           Mult            ....    1
 Number of Electrons    NEL             ....   10
 Basis Dimension        Dim             ....   72
 Nuclear Repulsion      ENuc            ....     11.9209981095 Eh

Convergence Acceleration:
 DIIS                   CNVDIIS         .... on
   Start iteration      DIISMaxIt       ....    12
   Startup error        DIISStart       ....  0.200000
   # of expansion vecs  DIISMaxEq       ....     5
   Bias factor          DIISBfac        ....   1.050
   Max. coefficient     DIISMaxC        ....  10.000
 Newton-Raphson         CNVNR           .... off
 SOSCF                  CNVSOSCF        .... on
   Start iteration      SOSCFMaxIt      ....   150
   Startup grad/error   SOSCFStart      ....  0.003300
 Level Shifting         CNVShift        .... on
   Level shift para.    LevelShift      ....    0.2500
   Turn off err/grad.   ShiftErr        ....    0.0010
 Zerner damping         CNVZerner       .... off
 Static damping         CNVDamp         .... on
   Fraction old density DampFac         ....    0.7000
   Max. Damping (<1)    DampMax         ....    0.9800
   Min. Damping (>=0)   DampMin         ....    0.0000
   Turn off err/grad.   DampErr         ....    0.1000
 Fernandez-Rico         CNVRico         .... off

SCF Procedure:
 Maximum # iterations   MaxIter         ....   125
 SCF integral mode      SCFMode         .... Direct
   Integral package                     .... LIBINT
 Reset frequency        DirectResetFreq ....    20
 Integral Threshold     Thresh          ....  1.000e-10 Eh
 Primitive CutOff       TCut            ....  1.000e-11 Eh

Convergence Tolerance:
 Convergence Check Mode ConvCheckMode   .... Total+1el-Energy
 Convergence forced     ConvForced      .... 0
 Energy Change          TolE            ....  1.000e-06 Eh
 1-El. energy change                    ....  1.000e-03 Eh
 Orbital Gradient       TolG            ....  5.000e-05
 Orbital Rotation angle TolX            ....  5.000e-05
 DIIS Error             TolErr          ....  1.000e-06


Diagonalization of the overlap matrix:
Smallest eigenvalue                        ... -9.331e-17
Time for diagonalization                   ...    0.002 sec
Threshold for overlap eigenvalues          ... 1.000e-08
Number of eigenvalues below threshold      ... 6
Time for construction of square roots      ...    0.003 sec
Total time needed                          ...    0.005 sec

---------------------
INITIAL GUESS: MOREAD
---------------------
Guess MOs are being read from file: test.ges
Input Geometry matches current geometry (good)
Input basis set matches current basis set (good)
MOs were renormalized
MOs were reorthogonalized (Cholesky)
                      ------------------
                      INITIAL GUESS DONE (   0.0 sec)
                      ------------------
-------------------
DFT GRID GENERATION
-------------------

General Integration Accuracy     IntAcc      ...  5.340
Radial Grid Type                 RadialGrid  ... Gauss-Chebyshev
Angular Grid (max. acc.)         AngularGrid ... Lebedev-590
Angular grid pruning method      GridPruning ... 3 (G Style)
Weight generation scheme         WeightScheme... Becke
Basis function cutoff            BFCut       ...    1.0000e-10
Integration weight cutoff        WCut        ...    1.0000e-14
Grids for H and He will be reduced by one unit

# of grid points (after initial pruning)     ...  49402 (   0.0 sec)
# of grid points (after weights+screening)   ...  48449 (   0.0 sec)
nearest neighbour list constructed           ...    0.0 sec
Grid point re-assignment to atoms done       ...    0.0 sec
Grid point division into batches done        ...    0.5 sec
Reduced shell lists constructed in    0.6 sec

Total number of grid points                  ...    48449
Total number of batches                      ...      760
Average number of points per batch           ...       63
Average number of grid points per atom       ...    12112
Average number of shells per batch           ...    23.06 (67.82%)
Average number of basis functions per batch  ...    53.71 (74.60%)
Average number of large shells per batch     ...    21.04 (91.25%)
Average number of large basis fcns per batch ...    49.17 (91.54%)
Maximum spatial batch extension              ...  13.64, 13.90, 13.64 au
Average spatial batch extension              ...   2.13,  2.20,  2.27 au

Time for grid setup =    0.636 sec

--------------
SCF ITERATIONS
--------------
ITER       Energy         Delta-E        Max-DP      RMS-DP      [F,P]     Damp
               ***  Starting incremental Fock matrix formation  ***
                      *** Initiating the SOSCF procedure ***
                      *** Re-Reading the Fockian *** 
                      *** Removing any level shift *** 
ITER      Energy       Delta-E        Grad      Rot      Max-DP    RMS-DP
  0    -56.58684482 -56.5868448211  0.000002  0.000002  0.000008  0.000000
               *** Restarting incremental Fock matrix formation ***
                 **** Energy Check signals convergence ****
              ***Rediagonalizing the Fockian in SOSCF/NRSCF***

               *****************************************************
               *                     SUCCESS                       *
               *           SCF CONVERGED AFTER   1 CYCLES          *
               *****************************************************


----------------
TOTAL SCF ENERGY
----------------

Total Energy       :          -56.58684482 Eh           -1539.80633 eV

Components:
Nuclear Repulsion  :           11.92099811 Eh             324.38685 eV
Electronic Energy  :          -68.50784293 Eh           -1864.19318 eV
One Electron Energy:          -99.62578571 Eh           -2710.95545 eV
Two Electron Energy:           31.11794278 Eh             846.76227 eV

Virial components:
Potential Energy   :         -112.92756561 Eh           -3072.91528 eV
Kinetic Energy     :           56.34072079 Eh            1533.10895 eV
Virial Ratio       :            2.00436849


DFT components:
N(Alpha)           :        4.999999865852 electrons
N(Beta)            :        4.999999865852 electrons
N(Total)           :        9.999999731705 electrons
E(X)               :       -6.086130928930 Eh       
E(C)               :       -0.412831131681 Eh       
E(XC)              :       -6.498962060611 Eh       
DFET-embed. en.    :        0.000000000000 Eh       

---------------
SCF CONVERGENCE
---------------

  Last Energy change         ...   -9.7700e-12  Tolerance :   1.0000e-06
  Last MAX-Density change    ...    7.7405e-06  Tolerance :   1.0000e-05
  Last RMS-Density change    ...    2.4287e-07  Tolerance :   1.0000e-06
  Last Orbital Gradient      ...    1.5159e-06  Tolerance :   5.0000e-05
  Last Orbital Rotation      ...    2.9817e-06  Tolerance :   5.0000e-05

             **** THE GBW FILE WAS UPDATED (test.gbw) ****
             **** DENSITY FILE WAS UPDATED (test.scfp) ****
             **** ENERGY FILE WAS UPDATED (test.en.tmp) ****
             **** THE GBW FILE WAS UPDATED (test.gbw) ****
             **** DENSITY FILE WAS UPDATED (test.scfp) ****
----------------
ORBITAL ENERGIES
----------------

  NO   OCC          E(Eh)            E(eV) 
   0   2.0000     -14.294069      -388.9614 
   1   2.0000      -0.855567       -23.2812 
   2   2.0000      -0.468476       -12.7479 
   3   2.0000      -0.468476       -12.7479 
   4   2.0000      -0.272545        -7.4163 
   5   0.0000       0.011725         0.3191 
   6   0.0000       0.086130         2.3437 
   7   0.0000       0.086131         2.3437 
   8   0.0000       0.113097         3.0775 
   9   0.0000       0.145534         3.9602 
  10   0.0000       0.145534         3.9602 
  11   0.0000       0.192686         5.2433 
  12   0.0000       0.436217        11.8701 
  13   0.0000       0.436218        11.8701 
  14   0.0000       0.465096        12.6559 
  15   0.0000       0.465096        12.6559 
  16   0.0000       0.512968        13.9586 
  17   0.0000       0.620517        16.8851 
  18   0.0000       0.645225        17.5575 
  19   0.0000       0.645225        17.5575 
  20   0.0000       0.762003        20.7352 
  21   0.0000       0.860200        23.4072 
  22   0.0000       0.860201        23.4073 
  23   0.0000       0.899685        24.4817 
  24   0.0000       0.970606        26.4115 
  25   0.0000       0.981829        26.7169 
  26   0.0000       0.981829        26.7169 
  27   0.0000       1.145485        31.1702 
  28   0.0000       1.281267        34.8650 
  29   0.0000       1.281267        34.8651 
  30   0.0000       1.386065        37.7167 
  31   0.0000       1.386065        37.7168 
  32   0.0000       1.516900        41.2770 
  33   0.0000       2.267771        61.7092 
  34   0.0000       2.267771        61.7092 
  35   0.0000       2.375694        64.6459 
  36   0.0000       2.446554        66.5741 
  37   0.0000       2.446554        66.5741 
  38   0.0000       2.665501        72.5320 
  39   0.0000       3.044750        82.8519 
  40   0.0000       3.044751        82.8519 
  41   0.0000       3.285194        89.3947 
  42   0.0000       3.441736        93.6544 
  43   0.0000       3.441736        93.6544 
  44   0.0000       3.625904        98.6659 
  45   0.0000       3.835246       104.3624 
  46   0.0000       3.912995       106.4780 
  47   0.0000       3.912995       106.4780 
  48   0.0000       4.054899       110.3394 
  49   0.0000       4.054900       110.3394 
  50   0.0000       4.230942       115.1298 
  51   0.0000       4.422149       120.3328 
  52   0.0000       4.422149       120.3328 
  53   0.0000       4.422836       120.3515 
  54   0.0000       4.721959       128.4910 
  55   0.0000       4.721960       128.4911 
  56   0.0000       4.790736       130.3626 
  57   0.0000       5.472058       148.9023 
  58   0.0000       6.261146       170.3745 
  59   0.0000       6.261147       170.3745 
  60   0.0000      10.199176       277.5337 
  61   0.0000      10.199176       277.5337 
  62   0.0000      10.289774       279.9990 
  63   0.0000      10.979147       298.7578 
  64   0.0000      10.979148       298.7578 
  65   0.0000      35.690202       971.1798 
  66   0.0000       0.000000         0.0000 
  67   0.0000       0.000000         0.0000 
  68   0.0000       0.000000         0.0000 
  69   0.0000       0.000000         0.0000 
  70   0.0000       0.000000         0.0000 
  71   0.0000       0.000000         0.0000 

                    ********************************
                    * MULLIKEN POPULATION ANALYSIS *
                    ********************************

-----------------------
MULLIKEN ATOMIC CHARGES
-----------------------
   0 N :   -0.577912
   1 H :    0.192637
   2 H :    0.192638
   3 H :    0.192638
Sum of atomic charges:    0.0000000

--------------------------------
MULLIKEN REDUCED ORBITAL CHARGES
--------------------------------
  0 N s       :     3.557414  s :     3.557414
      pz      :     1.720058  p :     3.994811
      px      :     1.137376
      py      :     1.137376
      dz2     :     0.002429  d :     0.024658
      dxz     :     0.009108
      dyz     :     0.009108
      dx2y2   :     0.002007
      dxy     :     0.002007
      f0      :     0.000510  f :     0.001029
      f+1     :     0.000149
      f-1     :     0.000149
      f+2     :    -0.000002
      f-2     :    -0.000002
      f+3     :     0.000000
      f-3     :     0.000225
  1 H s       :     0.751921  s :     0.751921
      pz      :     0.023758  p :     0.055443
      px      :     0.011535
      py      :     0.020149
  2 H s       :     0.751920  s :     0.751920
      pz      :     0.023758  p :     0.055443
      px      :     0.017996
      py      :     0.013689
  3 H s       :     0.751920  s :     0.751920
      pz      :     0.023758  p :     0.055443
      px      :     0.017996
      py      :     0.013689


                     *******************************
                     * LOEWDIN POPULATION ANALYSIS *
                     *******************************

----------------------
LOEWDIN ATOMIC CHARGES
----------------------
   0 N :    0.021501
   1 H :   -0.007167
   2 H :   -0.007167
   3 H :   -0.007167

-------------------------------
LOEWDIN REDUCED ORBITAL CHARGES
-------------------------------
  0 N s       :     2.947686  s :     2.947686
      pz      :     1.592037  p :     3.930494
      px      :     1.169228
      py      :     1.169228
      dz2     :     0.003287  d :     0.093443
      dxz     :     0.017244
      dyz     :     0.017244
      dx2y2   :     0.027833
      dxy     :     0.027833
      f0      :     0.000959  f :     0.006877
      f+1     :     0.000148
      f-1     :     0.000148
      f+2     :     0.001663
      f-2     :     0.001663
      f+3     :     0.000000
      f-3     :     0.002297
  1 H s       :     0.740801  s :     0.740801
      pz      :     0.110965  p :     0.266366
      px      :     0.053652
      py      :     0.101748
  2 H s       :     0.740801  s :     0.740801
      pz      :     0.110965  p :     0.266366
      px      :     0.089724
      py      :     0.065676
  3 H s       :     0.740801  s :     0.740801
      pz      :     0.110965  p :     0.266366
      px      :     0.089724
      py      :     0.065676


                      *****************************
                      * MAYER POPULATION ANALYSIS *
                      *****************************

  NA   - Mulliken gross atomic population
  ZA   - Total nuclear charge
  QA   - Mulliken gross atomic charge
  VA   - Mayer's total valence
  BVA  - Mayer's bonded valence
  FA   - Mayer's free valence

  ATOM       NA         ZA         QA         VA         BVA        FA
  0 N      7.5779     7.0000    -0.5779     2.9320     2.9320     0.0000
  1 H      0.8074     1.0000     0.1926     0.9890     0.9890     0.0000
  2 H      0.8074     1.0000     0.1926     0.9890     0.9890    -0.0000
  3 H      0.8074     1.0000     0.1926     0.9890     0.9890     0.0000

  Mayer bond orders larger than 0.100000
B(  0-N ,  1-H ) :   0.9773 B(  0-N ,  2-H ) :   0.9773 B(  0-N ,  3-H ) :   0.9773 


-------
TIMINGS
-------

Total SCF time: 0 days 0 hours 0 min 1 sec 

Total time                  ....       1.699 sec
Sum of individual times     ....       1.523 sec  ( 89.6%)

Fock matrix formation       ....       0.881 sec  ( 51.8%)
  XC integration            ....       0.494 sec  ( 56.0% of F)
    Basis function eval.    ....       0.199 sec  ( 40.3% of XC)
    Density eval.           ....       0.082 sec  ( 16.7% of XC)
    XC-Functional eval.     ....       0.074 sec  ( 15.0% of XC)
    XC-Potential eval.      ....       0.108 sec  ( 21.9% of XC)
Diagonalization             ....       0.001 sec  (  0.0%)
Density matrix formation    ....       0.000 sec  (  0.0%)
Population analysis         ....       0.002 sec  (  0.1%)
Initial guess               ....       0.002 sec  (  0.1%)
Orbital Transformation      ....       0.000 sec  (  0.0%)
Orbital Orthonormalization  ....       0.000 sec  (  0.0%)
DIIS solution               ....       0.000 sec  (  0.0%)
SOSCF solution              ....       0.001 sec  (  0.0%)
Grid generation             ....       0.636 sec  ( 37.4%)

-------------------------   --------------------
FINAL SINGLE POINT ENERGY       -56.586844821139
-------------------------   --------------------


                            ***************************************
                            *     ORCA property calculations      *
                            ***************************************

                                    ---------------------
                                    Active property flags
                                    ---------------------
   (+) Dipole Moment


------------------------------------------------------------------------------
                       ORCA ELECTRIC PROPERTIES CALCULATION
------------------------------------------------------------------------------

Dipole Moment Calculation                       ... on
Quadrupole Moment Calculation                   ... off
Polarizability Calculation                      ... off
GBWName                                         ... test.gbw
Electron density file                           ... test.scfp
The origin for moment calculation is the CENTER OF MASS  = ( 0.000000,  0.000000  0.083934)

-------------
DIPOLE MOMENT
-------------
                                X             Y             Z
Electronic contribution:     -0.00000      -0.00000       0.25289
Nuclear contribution   :      0.00000       0.00000      -0.83935
                        -----------------------------------------
Total Dipole Moment    :     -0.00000       0.00000      -0.58646
                        -----------------------------------------
Magnitude (a.u.)       :      0.58646
Magnitude (Debye)      :      1.49066



--------------------
Rotational spectrum 
--------------------
 
Rotational constants in cm-1:    10.007159    10.007155     6.210093 
Rotational constants in MHz : 300007.074636 300006.962848 186173.917882 

 Dipole components along the rotational axes: 
x,y,z [a.u.] :    -0.000000    -0.000000    -0.586459 
x,y,z [Debye]:    -0.000000    -0.000001    -1.490659 

 

Timings for individual modules:

Sum of individual times         ...        2.001 sec (=   0.033 min)
GTO integral calculation        ...        0.265 sec (=   0.004 min)  13.2 %
SCF iterations                  ...        1.736 sec (=   0.029 min)  86.8 %


                 $$$$$$$$$$$$$$$$  JOB NUMBER  2 $$$$$$$$$$$$$$


                       ****************************
                       * Single Point Calculation *
                       ****************************

---------------------------------
CARTESIAN COORDINATES (ANGSTROEM)
---------------------------------
  N      0.000000    0.000000    0.108827
  H      0.000000    0.947455   -0.253931
  H      0.820520   -0.473727   -0.253931
  H     -0.820520   -0.473727   -0.253931

----------------------------
CARTESIAN COORDINATES (A.U.)
----------------------------
  NO LB      ZA    FRAG     MASS         X           Y           Z
   0 N     7.0000    0    14.007    0.000000    0.000000    0.205653
   1 H     1.0000    0     1.008    0.000000    1.790430   -0.479860
   2 H     1.0000    0     1.008    1.550558   -0.895214   -0.479860
   3 H     1.0000    0     1.008   -1.550558   -0.895214   -0.479860

--------------------------------
INTERNAL COORDINATES (ANGSTROEM)
--------------------------------
 N      0   0   0     0.000000000000     0.00000000     0.00000000
 H      1   0   0     1.014526659871     0.00000000     0.00000000
 H      1   2   0     1.014526346377   107.95210273     0.00000000
 H      1   2   3     1.014526346377   107.95210273   243.54139934

---------------------------
INTERNAL COORDINATES (A.U.)
---------------------------
 N      0   0   0     0.000000000000     0.00000000     0.00000000
 H      1   0   0     1.917177542718     0.00000000     0.00000000
 H      1   2   0     1.917176950300   107.95210273     0.00000000
 H      1   2   3     1.917176950300   107.95210273   243.54139934

---------------------
BASIS SET INFORMATION
---------------------
There are 2 groups of distinct atoms

 Group   1 Type N   : 12s6p3d1f contracted to 5s4p3d1f pattern {63111/3111/111/1}
 Group   2 Type H   : 5s2p contracted to 5s2p pattern {31100/11}

Atom   0N    basis set group =>   1
Atom   1H    basis set group =>   2
Atom   2H    basis set group =>   2
Atom   3H    basis set group =>   2
------------------------------------------------------------------------------
                           ORCA GTO INTEGRAL CALCULATION
------------------------------------------------------------------------------

                         BASIS SET STATISTICS AND STARTUP INFO

 # of primitive gaussian shells          ...   43
 # of primitive gaussian functions       ...   85
 # of contracted shells                  ...   34
 # of contracted basis functions         ...   72
 Highest angular momentum                ...    3
 Maximum contraction depth               ...    6
 Integral package used                   ... LIBINT
 Integral threshhold            Thresh   ...  1.000e-10
 Primitive cut-off              TCut     ...  1.000e-11


------------------------------ INTEGRAL EVALUATION ----------------------------


 * One electron integrals 
 Pre-screening matrix                    ... done
 Shell pair data                         ... done (   0.000 sec)

-------------------------------------------------------------------------------
                                 ORCA SCF
-------------------------------------------------------------------------------

------------
SCF SETTINGS
------------
Hamiltonian:
 Density Functional     Method          .... DFT(GTOs)
 Exchange Functional    Exchange        .... B88
   X-Alpha parameter    XAlpha          ....  0.666667
   Becke's b parameter  XBeta           ....  0.004200
 Correlation Functional Correlation     .... LYP
 LDA part of GGA corr.  LDAOpt          .... VWN-3
 Gradients option       PostSCFGGA      .... off
 Hybrid DFT is turned on
   Fraction HF Exchange ScalHFX         ....  0.803300
   Scaling of DF-GGA-X  ScalDFX         ....  0.210700
   Scaling of DF-GGA-C  ScalDFC         ....  0.678900
   Scaling of DF-LDA-C  ScalLDAC        ....  0.678900
   Perturbative correction              ....  0.321100
   Density functional embedding theory  .... OFF
   NL short-range parameter             ....  4.800000


General Settings:
 Integral files         IntName         .... test_job2
 Hartree-Fock type      HFTyp           .... RHF
 Total Charge           Charge          ....    0
 Multiplicity           Mult            ....    1
 Number of Electrons    NEL             ....   10
 Basis Dimension        Dim             ....   72
 Nuclear Repulsion      ENuc            ....     11.9209981095 Eh

Convergence Acceleration:
 DIIS                   CNVDIIS         .... on
   Start iteration      DIISMaxIt       ....    12
   Startup error        DIISStart       ....  0.200000
   # of expansion vecs  DIISMaxEq       ....     5
   Bias factor          DIISBfac        ....   1.050
   Max. coefficient     DIISMaxC        ....  10.000
 Newton-Raphson         CNVNR           .... off
 SOSCF                  CNVSOSCF        .... on
   Start iteration      SOSCFMaxIt      ....   150
   Startup grad/error   SOSCFStart      ....  0.003300
 Level Shifting         CNVShift        .... on
   Level shift para.    LevelShift      ....    0.2500
   Turn off err/grad.   ShiftErr        ....    0.0010
 Zerner damping         CNVZerner       .... off
 Static damping         CNVDamp         .... on
   Fraction old density DampFac         ....    0.7000
   Max. Damping (<1)    DampMax         ....    0.9800
   Min. Damping (>=0)   DampMin         ....    0.0000
   Turn off err/grad.   DampErr         ....    0.1000
 Fernandez-Rico         CNVRico         .... off

SCF Procedure:
 Maximum # iterations   MaxIter         ....     1
 SCF integral mode      SCFMode         .... Direct
   Integral package                     .... LIBINT
 Reset frequency        DirectResetFreq ....    20
 Integral Threshold     Thresh          ....  1.000e-10 Eh
 Primitive CutOff       TCut            ....  1.000e-11 Eh

Convergence Tolerance:
 Convergence Check Mode ConvCheckMode   .... Total+1el-Energy
 Convergence forced     ConvForced      .... 0
 Energy Change          TolE            ....  1.000e-06 Eh
 1-El. energy change                    ....  1.000e-03 Eh
 Orbital Gradient       TolG            ....  5.000e-05
 Orbital Rotation angle TolX            ....  5.000e-05
 DIIS Error             TolErr          ....  1.000e-06


Diagonalization of the overlap matrix:
Smallest eigenvalue                        ... -9.331e-17
Time for diagonalization                   ...    0.002 sec
Threshold for overlap eigenvalues          ... 1.000e-08
Number of eigenvalues below threshold      ... 6
Time for construction of square roots      ...    0.013 sec
Total time needed                          ...    0.014 sec

---------------------
INITIAL GUESS: MOREAD
---------------------
Guess MOs are being read from file: test.gbw
Input Geometry matches current geometry (good)
Input basis set matches current basis set (good)
MOs were renormalized
MOs were reorthogonalized (Cholesky)
                      ------------------
                      INITIAL GUESS DONE (   0.0 sec)
                      ------------------
-------------------
DFT GRID GENERATION
-------------------

General Integration Accuracy     IntAcc      ...  5.340
Radial Grid Type                 RadialGrid  ... Gauss-Chebyshev
Angular Grid (max. acc.)         AngularGrid ... Lebedev-590
Angular grid pruning method      GridPruning ... 3 (G Style)
Weight generation scheme         WeightScheme... Becke
Basis function cutoff            BFCut       ...    1.0000e-10
Integration weight cutoff        WCut        ...    1.0000e-14
Grids for H and He will be reduced by one unit

# of grid points (after initial pruning)     ...  49402 (   0.0 sec)
# of grid points (after weights+screening)   ...  48449 (   0.0 sec)
nearest neighbour list constructed           ...    0.0 sec
Grid point re-assignment to atoms done       ...    0.0 sec
Grid point division into batches done        ...    0.5 sec
Reduced shell lists constructed in    0.6 sec

Total number of grid points                  ...    48449
Total number of batches                      ...      760
Average number of points per batch           ...       63
Average number of grid points per atom       ...    12112
Average number of shells per batch           ...    23.06 (67.82%)
Average number of basis functions per batch  ...    53.71 (74.60%)
Average number of large shells per batch     ...    21.04 (91.25%)
Average number of large basis fcns per batch ...    49.17 (91.54%)
Maximum spatial batch extension              ...  13.64, 13.90, 13.64 au
Average spatial batch extension              ...   2.13,  2.20,  2.27 au

Time for grid setup =    0.635 sec

--------------
SCF ITERATIONS
--------------
ITER       Energy         Delta-E        Max-DP      RMS-DP      [F,P]     Damp
               ***  Starting incremental Fock matrix formation  ***
  0    -56.4438389022   0.000000000000 0.00000000  0.00000000  0.0487912 0.0000

               *****************************************************
               *                      ERROR                        *
               *        SCF NOT CONVERGED AFTER   1 CYCLES         *
               *****************************************************


----------------
TOTAL SCF ENERGY
----------------

Total Energy       :          -56.44383890 Eh           -1535.91494 eV

Components:
Nuclear Repulsion  :           11.92099811 Eh             324.38685 eV
Electronic Energy  :          -68.36483701 Eh           -1860.30179 eV
One Electron Energy:          -99.62578571 Eh           -2710.95545 eV
Two Electron Energy:           31.26094870 Eh             850.65366 eV

Virial components:
Potential Energy   :         -112.78455969 Eh           -3069.02390 eV
Kinetic Energy     :           56.34072079 Eh            1533.10895 eV
Virial Ratio       :            2.00183026


DFT components:
N(Alpha)           :        4.999999865852 electrons
N(Beta)            :        4.999999865852 electrons
N(Total)           :        9.999999731705 electrons
E(X)               :       -1.522289060350 Eh       
E(C)               :       -0.215799293858 Eh       
E(XC)              :       -1.738088354208 Eh       
DFET-embed. en.    :        0.000000000000 Eh       

---------------
SCF CONVERGENCE
---------------

  Last Energy change         ...    0.0000e+00  Tolerance :   1.0000e-06
  Last MAX-Density change    ...    2.7756e-17  Tolerance :   1.0000e-05
  Last RMS-Density change    ...    6.1340e-19  Tolerance :   1.0000e-06
  Last DIIS Error            ...    4.8791e-02  Tolerance :   1.0000e-06

             **** DENSITY FILE WAS UPDATED (test_job2.scfp) ****
             **** ENERGY FILE WAS UPDATED (test_job2.en.tmp) ****

     --------------------------------------------------------------------
                                      WARNING
     The wavefunction IS NOT YET CONVERGED! It shows however signs of
     convergence. Therefore the wavefunction will be stored and can be
     used as input for another calculation. 
     DO NOT USE THIS WAVEFUNCTION  FOR ANYHTING ELSE. It is NOT RELIABLE
     --------------------------------------------------------------------

             **** DENSITY FILE WAS UPDATED (test_job2.scfp) ****
----------------
ORBITAL ENERGIES
----------------

  NO   OCC          E(Eh)            E(eV) 
   0   2.0000     -14.294069      -388.9614 
   1   2.0000      -0.855567       -23.2812 
   2   2.0000      -0.468476       -12.7479 
   3   2.0000      -0.468476       -12.7479 
   4   2.0000      -0.272545        -7.4163 
   5   0.0000       0.011725         0.3191 
   6   0.0000       0.086130         2.3437 
   7   0.0000       0.086131         2.3437 
   8   0.0000       0.113097         3.0775 
   9   0.0000       0.145534         3.9602 
  10   0.0000       0.145534         3.9602 
  11   0.0000       0.192686         5.2433 
  12   0.0000       0.436217        11.8701 
  13   0.0000       0.436218        11.8701 
  14   0.0000       0.465096        12.6559 
  15   0.0000       0.465096        12.6559 
  16   0.0000       0.512968        13.9586 
  17   0.0000       0.620517        16.8851 
  18   0.0000       0.645225        17.5575 
  19   0.0000       0.645225        17.5575 
  20   0.0000       0.762003        20.7352 
  21   0.0000       0.860200        23.4072 
  22   0.0000       0.860201        23.4073 
  23   0.0000       0.899685        24.4817 
  24   0.0000       0.970606        26.4115 
  25   0.0000       0.981829        26.7169 
  26   0.0000       0.981829        26.7169 
  27   0.0000       1.145485        31.1702 
  28   0.0000       1.281267        34.8650 
  29   0.0000       1.281267        34.8651 
  30   0.0000       1.386065        37.7167 
  31   0.0000       1.386065        37.7168 
  32   0.0000       1.516900        41.2770 
  33   0.0000       2.267771        61.7092 
  34   0.0000       2.267771        61.7092 
  35   0.0000       2.375694        64.6459 
  36   0.0000       2.446554        66.5741 
  37   0.0000       2.446554        66.5741 
  38   0.0000       2.665501        72.5320 
  39   0.0000       3.044750        82.8519 
  40   0.0000       3.044751        82.8519 
  41   0.0000       3.285194        89.3947 
  42   0.0000       3.441736        93.6544 
  43   0.0000       3.441736        93.6544 
  44   0.0000       3.625904        98.6659 
  45   0.0000       3.835246       104.3624 
  46   0.0000       3.912995       106.4780 
  47   0.0000       3.912995       106.4780 
  48   0.0000       4.054899       110.3394 
  49   0.0000       4.054900       110.3394 
  50   0.0000       4.230942       115.1298 
  51   0.0000       4.422149       120.3328 
  52   0.0000       4.422149       120.3328 
  53   0.0000       4.422836       120.3515 
  54   0.0000       4.721959       128.4910 
  55   0.0000       4.721960       128.4911 
  56   0.0000       4.790736       130.3626 
  57   0.0000       5.472058       148.9023 
  58   0.0000       6.261146       170.3745 
  59   0.0000       6.261147       170.3745 
  60   0.0000      10.199176       277.5337 
  61   0.0000      10.199176       277.5337 
  62   0.0000      10.289774       279.9990 
  63   0.0000      10.979147       298.7578 
  64   0.0000      10.979148       298.7578 
  65   0.0000      35.690202       971.1798 
  66   0.0000       0.000000         0.0000 
  67   0.0000       0.000000         0.0000 
  68   0.0000       0.000000         0.0000 
  69   0.0000       0.000000         0.0000 
  70   0.0000       0.000000         0.0000 
  71   0.0000       0.000000         0.0000 

                    ********************************
                    * MULLIKEN POPULATION ANALYSIS *
                    ********************************

-----------------------
MULLIKEN ATOMIC CHARGES
-----------------------
   0 N :   -0.577912
   1 H :    0.192637
   2 H :    0.192638
   3 H :    0.192638
Sum of atomic charges:   -0.0000000

--------------------------------
MULLIKEN REDUCED ORBITAL CHARGES
--------------------------------
  0 N s       :     3.557414  s :     3.557414
      pz      :     1.720058  p :     3.994811
      px      :     1.137376
      py      :     1.137376
      dz2     :     0.002429  d :     0.024658
      dxz     :     0.009108
      dyz     :     0.009108
      dx2y2   :     0.002007
      dxy     :     0.002007
      f0      :     0.000510  f :     0.001029
      f+1     :     0.000149
      f-1     :     0.000149
      f+2     :    -0.000002
      f-2     :    -0.000002
      f+3     :     0.000000
      f-3     :     0.000225
  1 H s       :     0.751921  s :     0.751921
      pz      :     0.023758  p :     0.055443
      px      :     0.011535
      py      :     0.020149
  2 H s       :     0.751920  s :     0.751920
      pz      :     0.023758  p :     0.055443
      px      :     0.017996
      py      :     0.013689
  3 H s       :     0.751920  s :     0.751920
      pz      :     0.023758  p :     0.055443
      px      :     0.017996
      py      :     0.013689


                     *******************************
                     * LOEWDIN POPULATION ANALYSIS *
                     *******************************

----------------------
LOEWDIN ATOMIC CHARGES
----------------------
   0 N :    0.021501
   1 H :   -0.007167
   2 H :   -0.007167
   3 H :   -0.007167

-------------------------------
LOEWDIN REDUCED ORBITAL CHARGES
-------------------------------
  0 N s       :     2.947686  s :     2.947686
      pz      :     1.592037  p :     3.930494
      px      :     1.169228
      py      :     1.169228
      dz2     :     0.003287  d :     0.093443
      dxz     :     0.017244
      dyz     :     0.017244
      dx2y2   :     0.027833
      dxy     :     0.027833
      f0      :     0.000959  f :     0.006877
      f+1     :     0.000148
      f-1     :     0.000148
      f+2     :     0.001663
      f-2     :     0.001663
      f+3     :     0.000000
      f-3     :     0.002297
  1 H s       :     0.740801  s :     0.740801
      pz      :     0.110965  p :     0.266366
      px      :     0.053652
      py      :     0.101748
  2 H s       :     0.740801  s :     0.740801
      pz      :     0.110965  p :     0.266366
      px      :     0.089724
      py      :     0.065676
  3 H s       :     0.740801  s :     0.740801
      pz      :     0.110965  p :     0.266366
      px      :     0.089724
      py      :     0.065676


                      *****************************
                      * MAYER POPULATION ANALYSIS *
                      *****************************

  NA   - Mulliken gross atomic population
  ZA   - Total nuclear charge
  QA   - Mulliken gross atomic charge
  VA   - Mayer's total valence
  BVA  - Mayer's bonded valence
  FA   - Mayer's free valence

  ATOM       NA         ZA         QA         VA         BVA        FA
  0 N      7.5779     7.0000    -0.5779     2.9320     2.9320     0.0000
  1 H      0.8074     1.0000     0.1926     0.9890     0.9890    -0.0000
  2 H      0.8074     1.0000     0.1926     0.9890     0.9890    -0.0000
  3 H      0.8074     1.0000     0.1926     0.9890     0.9890     0.0000

  Mayer bond orders larger than 0.100000
B(  0-N ,  1-H ) :   0.9773 B(  0-N ,  2-H ) :   0.9773 B(  0-N ,  3-H ) :   0.9773 


-------
TIMINGS
-------

Total SCF time: 0 days 0 hours 0 min 1 sec 

Total time                  ....       1.314 sec
Sum of individual times     ....       1.123 sec  ( 85.5%)

Fock matrix formation       ....       0.485 sec  ( 36.9%)
  XC integration            ....       0.273 sec  ( 56.3% of F)
    Basis function eval.    ....       0.096 sec  ( 35.0% of XC)
    Density eval.           ....       0.042 sec  ( 15.3% of XC)
    XC-Functional eval.     ....       0.036 sec  ( 13.1% of XC)
    XC-Potential eval.      ....       0.076 sec  ( 27.9% of XC)
Diagonalization             ....       0.000 sec  (  0.0%)
Density matrix formation    ....       0.000 sec  (  0.0%)
Population analysis         ....       0.002 sec  (  0.1%)
Initial guess               ....       0.001 sec  (  0.1%)
Orbital Transformation      ....       0.000 sec  (  0.0%)
Orbital Orthonormalization  ....       0.000 sec  (  0.0%)
DIIS solution               ....       0.000 sec  (  0.0%)
SOSCF solution              ....       0.000 sec  (  0.0%)
Grid generation             ....       0.635 sec  ( 48.3%)

------------------------------------------------------------------------------
                                ORCA  MP2 
------------------------------------------------------------------------------


----------
MP2 ENERGY (disk based algorithm)
----------

Dimension of the basis                    ...   72
Memory devoted to MP2                     ... 1000 MB   
Data format for buffers                   ... DOUBLE
Compression type for matrix containers    ... UNCOMPRESSED
Overall scaling of the MP2 energy         ...   3.211e-01

-------------------------------
PARTIAL EXCHANGE TRANSFORMATION
-------------------------------

Transformation type                        ... one-operator
Generation of integrals (i,mue|j,nue)      ... ON
Generation of integrals (mue,kappa|nue,tau)... OFF
Generation of integrals (i,mue|a,nue)      ... OFF
Dimension of the basis                     ...   72
Number of internal MOs                     ...    5 (   0-   4)
Pair cutoff                                ... 1.000e-11 Eh
Number of AO pairs in the trafo            ... 2628
Total Number of distinct AO pairs          ... 2628
Memory devoted for trafo                   ... 1000.0 MB 
Max. Number of MO pairs treated together   ... 25283      
Number Format for Storage                  ... Double (8 Byte)
Integral package used                      ... LIBINT

Starting integral evaluation:
    ... done with AO integral generation
Closing buffer AOK     ( 0.00 GB; CompressionRatio= 0.94)
Collecting buffer AOK 
Number of MO pairs included in the trafo   ...   15
------------------------
SORTING OF (i,mue|j,nue)
------------------------

IBATCH = 1 of  1
Closing buffer KAO     ( 0.00 GB; CompressionRatio= 1.00)
Collecting buffer KAO 
N(AO-Batches) Done                         ...    318304 
N(AO-Batches) Skipped                      ...         0 
N(IJ)-pairs Skipped                        ...         0 
TOTAL TIME for half transformation         ...     0.473 sec
AO-integral generation                     ...     0.384 sec
Half transformation                        ...     0.044 sec
K-integral sorting                         ...     0.009 sec

Finished integral transformation - now doing MP2 part

OPERATOR COMBINATION   0   0: ij=(  0..  4,  0..  4)
  Internal MO   2
-----------------------------------------------
 MP2 CORRELATION ENERGY   :     -0.111897739 Eh
-----------------------------------------------


-------
TIMINGS
-------
Total time                :    0.549 sec
Integral trafo            :    0.474 sec ( 86.3%)
K(i,j)                    :    0.001 sec (  0.1%)
T(i,j)                    :    0.000 sec (  0.0%)

---------------------------------------
MP2 TOTAL ENERGY:      -56.555736641 Eh
---------------------------------------

-------------------------   --------------------
FINAL SINGLE POINT ENERGY       -56.555736641210   (Wavefunction not fully converged!)
-------------------------   --------------------



     ------------------------------------------------------------------------------
                                      ERROR
     This wavefunction IS NOT FULLY CONVERGED! 
     You can't use it for properties or numerical calculations !
     Aborting the run ...
     Please restart calculation (with larger maxiter/different convergence flags)
     ------------------------------------------------------------------------------


