
                                 *****************
                                 * O   R   C   A *
                                 *****************

           --- An Ab Initio, DFT and Semiempirical electronic structure package ---

                  #######################################################
                  #                        -***-                        #
                  #          Department of theory and spectroscopy      #
                  #               Directorship: Frank Neese             #
                  #        Max Planck Institute fuer Kohlenforschung    #
                  #                Kaiser Wilhelm Platz 1               #
                  #                 D-45470 Muelheim/Ruhr               #
                  #                      Germany                        #
                  #                                                     #
                  #                  All rights reserved                #
                  #                        -***-                        #
                  #######################################################


                         Program Version 4.2.1 -  RELEASE  -


 With contributions from (in alphabetic order):
   Daniel Aravena         : Magnetic Suceptibility
   Michael Atanasov       : Ab Initio Ligand Field Theory (pilot matlab implementation)
   Alexander A. Auer      : GIAO ZORA, VPT2
   Ute Becker             : Parallelization
   Giovanni Bistoni       : ED, misc. LED, open-shell LED, HFLD
   Martin Brehm           : Molecular dynamics
   Dmytro Bykov           : SCF Hessian
   Vijay G. Chilkuri      : MRCI spin determinant printing, contributions to CSF-ICE
   Dipayan Datta          : RHF DLPNO-CCSD density
   Achintya Kumar Dutta   : EOM-CC, STEOM-CC
   Dmitry Ganyushin       : Spin-Orbit,Spin-Spin,Magnetic field MRCI
   Miquel Garcia          : C-PCM Hessian, Gaussian charge scheme
   Yang Guo               : DLPNO-NEVPT2, CIM, IAO-localization
   Andreas Hansen         : Spin unrestricted coupled pair/coupled cluster methods
   Benjamin Helmich-Paris : CASSCF linear response (MC-RPA)
   Lee Huntington         : MR-EOM, pCC
   Robert Izsak           : Overlap fitted RIJCOSX, COSX-SCS-MP3, EOM
   Christian Kollmar      : KDIIS, OOCD, Brueckner-CCSD(T), CCSD density
   Simone Kossmann        : Meta GGA functionals, TD-DFT gradient, OOMP2, MP2 Hessian
   Martin Krupicka        : AUTO-CI
   Lucas Lang             : DCDCAS
   Dagmar Lenk            : GEPOL surface, SMD
   Dimitrios Liakos       : Extrapolation schemes; Compound Job, initial MDCI parallelization
   Dimitrios Manganas     : Further ROCIS development; embedding schemes
   Dimitrios Pantazis     : SARC Basis sets
   Taras Petrenko         : DFT Hessian,TD-DFT gradient, ASA, ECA, R-Raman, ABS, FL, XAS/XES, NRVS
   Peter Pinski           : DLPNO-MP2, DLPNO-MP2 Gradient
   Christoph Reimann      : Effective Core Potentials
   Marius Retegan         : Local ZFS, SOC
   Christoph Riplinger    : Optimizer, TS searches, QM/MM, DLPNO-CCSD(T), (RO)-DLPNO pert. Triples
   Tobias Risthaus        : Range-separated hybrids, TD-DFT gradient, RPA, STAB
   Michael Roemelt        : Original ROCIS implementation
   Masaaki Saitow         : Open-shell DLPNO-CCSD energy and density
   Barbara Sandhoefer     : DKH picture change effects
   Avijit Sen             : IP-ROCIS
   Kantharuban Sivalingam : CASSCF convergence, NEVPT2, FIC-MRCI
   Bernardo de Souza      : ESD, SOC TD-DFT
   Georgi Stoychev        : AutoAux, RI-MP2 NMR
   Willem Van den Heuvel  : Paramagnetic NMR
   Boris Wezisla          : Elementary symmetry handling
   Frank Wennmohs         : Technical directorship


 We gratefully acknowledge several colleagues who have allowed us to
 interface, adapt or use parts of their codes:
   Stefan Grimme, W. Hujo, H. Kruse,             : VdW corrections, initial TS optimization,
                  C. Bannwarth                     DFT functionals, gCP, sTDA/sTD-DF
   Ed Valeev, F. Pavosevic, A. Kumar             : LibInt (2-el integral package), F12 methods
   Garnet Chan, S. Sharma, J. Yang, R. Olivares  : DMRG
   Ulf Ekstrom                                   : XCFun DFT Library
   Mihaly Kallay                                 : mrcc  (arbitrary order and MRCC methods)
   Andreas Klamt, Michael Diedenhofen            : otool_cosmo (COSMO solvation model)
   Jiri Pittner, Ondrej Demel                    : Mk-CCSD
   Frank Weinhold                                : gennbo (NPA and NBO analysis)
   Christopher J. Cramer and Donald G. Truhlar   : smd solvation model
   Lars Goerigk                                  : TD-DFT with DH, B97 family of functionals
   V. Asgeirsson, H. Jonsson                     : NEB implementation
   FAccTs GmbH                                   : IRC, NEB, NEB-TS, Multilevel, MM, QM/MM, CI optimization
   S Lehtola, MJT Oliveira, MAL Marques          : LibXC Library


 Your calculation uses the libint2 library for the computation of 2-el integrals
 For citations please refer to: http://libint.valeyev.net

 Your ORCA version has been built with support for libXC version: 4.2.3
 For citations please refer to: https://tddft.org/programs/libxc/

 This ORCA versions uses:
   CBLAS   interface :  Fast vector & matrix operations
   LAPACKE interface :  Fast linear algebra routines
   SCALAPACK package :  Parallel linear algebra routines


----- Orbital basis set information -----
Your calculation utilizes the basis: def2-SVP
   F. Weigend and R. Ahlrichs, Phys. Chem. Chem. Phys. 7, 3297 (2005).

================================================================================
                                        WARNINGS
                       Please study these warnings very carefully!
================================================================================


INFO   : the flag for use of LIBINT has been found!



***************************************
The coordinates will be read from file: 
***************************************


----- Orbital basis set information -----
Your calculation utilizes the basis: def2-SVP
   F. Weigend and R. Ahlrichs, Phys. Chem. Chem. Phys. 7, 3297 (2005).

----- AuxC basis set information -----
Your calculation utilizes the auxiliary basis: def2-SVP/C
  H-La, Hf-Rn : A. Hellweg, C. Hattig, S. Hofener and W. Klopper, Theor. Chem. Acc. 117, 587 (2007).
        Ce-Lu : J. Chmela and M. E. Harding, Mol. Phys. (2018).

================================================================================
                                        WARNINGS
                       Please study these warnings very carefully!
================================================================================


WARNING: Direct SCF is incompatible with ReadInts=true
  ===> : ReadInts is disabled

INFO   : the flag for use of LIBINT has been found!

================================================================================
                                       INPUT FILE
================================================================================
NAME = test2-dlpno.inp
|  1> ! RKS b3lyp_g def2-svp grid6 nofinalgrid 
|  2> ! xyzfile
|  3> %maxcore 1000
|  4> 
|  5> *xyz 0 1
|  6>  C                 -4.82378852   -1.56387663    0.00000000
|  7>  H                 -4.46713410   -2.57268663    0.00000000
|  8>  H                 -4.46711568   -1.05947844   -0.87365150
|  9>  H                 -5.89378852   -1.56386344    0.00000000
| 10>  C                 -4.31044630   -0.83792036    1.25740497
| 11>  H                 -4.66550265    0.17145273    1.25642745
| 12>  H                 -4.66871541   -1.34118879    2.13105486
| 13>  C                 -2.77044891   -0.84037671    1.25881364
| 14>  H                 -2.41218042   -0.33743483    0.38497547
| 15>  H                 -2.41539267   -1.84974940    1.26016738
| 16>  C                 -2.25710642   -0.11395139    2.51594759
| 17>  H                 -2.61544323   -0.61684569    3.38978513
| 18>  H                 -2.61209480    0.89544512    2.51455266
| 19>  C                 -0.71710925   -0.11651080    2.51741591
| 20>  H                 -0.35877330    0.38637575    1.64357355
| 21>  H                 -0.36212065   -1.12590722    2.51881957
| 22>  C                 -0.20376674    0.60992522    3.77454365
| 23>  H                 -0.56210498    0.10703940    4.64838548
| 24>  H                 -0.55875366    1.61932223    3.77313924
| 25>  C                  1.33623043    0.60736361    3.77601325
| 26>  H                  1.69456782    1.11025067    2.90217178
| 27>  H                  1.69121758   -0.40203332    3.77741602
| 28>  C                  1.84957293    1.33379742    5.03314227
| 29>  H                  1.49123612    0.83090904    5.90698322
| 30>  H                  2.91957097    1.33201912    5.03416247
| 31>  H                  1.49458457    2.34319392    5.03174052
| 32> *
| 33> 
| 34> $new_job
| 35> ! RKS def2-svp grid6 nofinalgrid
| 36> !  readints nofrozencore
| 37> !tightpno def2-svp/C
| 38> %scf maxiter 1 end
| 39> %maxcore 1000
| 40> %method
| 41>  Functional b3lyp_g
| 42>  ACM 0.8033, 0.2107, 0.6789
| 43>  ScalLDAC = 0.6789
| 44>  ScalMP2C = 0.3211
| 45> end
| 46> %mp2
| 47>  ri true
| 48>  dlpno true
| 49> end
| 50> 
| 51> *xyzfile 0 1
| 52> 
| 53> 
| 54> 
| 55>                          ****END OF INPUT****
================================================================================


                 $$$$$$$$$$$$$$$$$$$$$$$$$$$$$$$$$$$$$$$$$$$$$$ 
                 $ THERE ARE  2 JOBS TO BE PROCESSED THIS RUN $
                 $$$$$$$$$$$$$$$$$$$$$$$$$$$$$$$$$$$$$$$$$$$$$$ 




                 $$$$$$$$$$$$$$$$  JOB NUMBER  1 $$$$$$$$$$$$$$


                       ****************************
                       * Single Point Calculation *
                       ****************************

---------------------------------
CARTESIAN COORDINATES (ANGSTROEM)
---------------------------------
  C     -4.823789   -1.563877    0.000000
  H     -4.467134   -2.572687    0.000000
  H     -4.467116   -1.059478   -0.873651
  H     -5.893789   -1.563863    0.000000
  C     -4.310446   -0.837920    1.257405
  H     -4.665503    0.171453    1.256427
  H     -4.668715   -1.341189    2.131055
  C     -2.770449   -0.840377    1.258814
  H     -2.412180   -0.337435    0.384975
  H     -2.415393   -1.849749    1.260167
  C     -2.257106   -0.113951    2.515948
  H     -2.615443   -0.616846    3.389785
  H     -2.612095    0.895445    2.514553
  C     -0.717109   -0.116511    2.517416
  H     -0.358773    0.386376    1.643574
  H     -0.362121   -1.125907    2.518820
  C     -0.203767    0.609925    3.774544
  H     -0.562105    0.107039    4.648385
  H     -0.558754    1.619322    3.773139
  C      1.336230    0.607364    3.776013
  H      1.694568    1.110251    2.902172
  H      1.691218   -0.402033    3.777416
  C      1.849573    1.333797    5.033142
  H      1.491236    0.830909    5.906983
  H      2.919571    1.332019    5.034162
  H      1.494585    2.343194    5.031741

----------------------------
CARTESIAN COORDINATES (A.U.)
----------------------------
  NO LB      ZA    FRAG     MASS         X           Y           Z
   0 C     6.0000    0    12.011   -9.115639   -2.955299    0.000000
   1 H     1.0000    0     1.008   -8.441660   -4.861673    0.000000
   2 H     1.0000    0     1.008   -8.441625   -2.002124   -1.650962
   3 H     1.0000    0     1.008  -11.137646   -2.955274    0.000000
   4 C     6.0000    0    12.011   -8.145563   -1.583440    2.376151
   5 H     1.0000    0     1.008   -8.816522    0.323999    2.374304
   6 H     1.0000    0     1.008   -8.822594   -2.534480    4.027110
   7 C     6.0000    0    12.011   -5.235390   -1.588082    2.378813
   8 H     1.0000    0     1.008   -4.558360   -0.637659    0.727498
   9 H     1.0000    0     1.008   -4.564431   -3.495520    2.381371
  10 C     6.0000    0    12.011   -4.265313   -0.215337    4.754452
  11 H     1.0000    0     1.008   -4.942471   -1.165669    6.405766
  12 H     1.0000    0     1.008   -4.936144    1.692146    4.751816
  13 C     6.0000    0    12.011   -1.355140   -0.220174    4.757227
  14 H     1.0000    0     1.008   -0.677983    0.730144    3.105904
  15 H     1.0000    0     1.008   -0.684309   -2.127656    4.759879
  16 C     6.0000    0    12.011   -0.385063    1.152592    7.132854
  17 H     1.0000    0     1.008   -1.062224    0.202275    8.784176
  18 H     1.0000    0     1.008   -1.055891    3.060076    7.130200
  19 C     6.0000    0    12.011    2.525110    1.147751    7.135631
  20 H     1.0000    0     1.008    3.202269    2.098070    5.484310
  21 H     1.0000    0     1.008    3.195938   -0.759733    7.138282
  22 C     6.0000    0    12.011    3.495186    2.520512    9.511260
  23 H     1.0000    0     1.008    2.818028    1.570191   11.162581
  24 H     1.0000    0     1.008    5.517190    2.517151    9.513188
  25 H     1.0000    0     1.008    2.824356    4.427995    9.508612

--------------------------------
INTERNAL COORDINATES (ANGSTROEM)
--------------------------------
 C      0   0   0     0.000000000000     0.00000000     0.00000000
 H      1   0   0     1.069999995984     0.00000000     0.00000000
 H      1   2   0     1.069999996412   109.47120272     0.00000000
 H      1   2   3     1.070000000081   109.47123145   119.99999264
 C      1   2   3     1.539999999795   109.47120251   239.99998515
 H      5   1   2     1.070000000952   109.47120230   179.88890033
 H      5   1   2     1.069999999118   109.47120275   299.88891486
 C      5   1   2     1.539999993251   109.47123127    59.88890783
 H      8   5   1     1.069999996698   109.47120316    59.97860807
 H      8   5   1     1.069999996959   109.47123169   299.97861500
 C      8   5   1     1.540000008383   109.47120251   179.97862274
 H     11   8   5     1.069999996583   109.47120246    59.99528586
 H     11   8   5     1.070000004750   109.47123088   299.99529357
 C     11   8   5     1.539999996802   109.47120271   179.99530096
 H     14  11   8     1.070000002506   109.47120253    59.99949653
 H     14  11   8     1.070000004252   109.47123140   299.99950441
 C     14  11   8     1.539999992988   109.47120277   179.99951180
 H     17  14  11     1.069999993487   109.47120289    59.99988436
 H     17  14  11     1.070000004456   109.47123099   299.99989184
 C     17  14  11     1.540000001681   109.47120298   179.99989956
 H     20  17  14     1.069999997607   109.47120229    60.00008529
 H     20  17  14     1.070000003141   109.47123097   300.00009340
 C     20  17  14     1.539999992060   109.47120280   180.00010078
 H     23  20  17     1.069999999083   109.47120286    60.00008478
 H     23  20  17     1.070000004095   109.47120251   180.00009991
 H     23  20  17     1.069999997594   109.47123133   300.00009246

---------------------------
INTERNAL COORDINATES (A.U.)
---------------------------
 C      0   0   0     0.000000000000     0.00000000     0.00000000
 H      1   0   0     2.022006955706     0.00000000     0.00000000
 H      1   2   0     2.022006956515   109.47120272     0.00000000
 H      1   2   3     2.022006963449   109.47123145   119.99999264
 C      1   2   3     2.910178245851   109.47120251   239.99998515
 H      5   1   2     2.022006965094   109.47120230   179.88890033
 H      5   1   2     2.022006961628   109.47120275   299.88891486
 C      5   1   2     2.910178233485   109.47123127    59.88890783
 H      8   5   1     2.022006957056   109.47120316    59.97860807
 H      8   5   1     2.022006957550   109.47123169   299.97861500
 C      8   5   1     2.910178262080   109.47120251   179.97862274
 H     11   8   5     2.022006956838   109.47120246    59.99528586
 H     11   8   5     2.022006972272   109.47123088   299.99529357
 C     11   8   5     2.910178240196   109.47120271   179.99530096
 H     14  11   8     2.022006968032   109.47120253    59.99949653
 H     14  11   8     2.022006971332   109.47123140   299.99950441
 C     14  11   8     2.910178232989   109.47120277   179.99951180
 H     17  14  11     2.022006950987   109.47120289    59.99988436
 H     17  14  11     2.022006971716   109.47123099   299.99989184
 C     17  14  11     2.910178249416   109.47120298   179.99989956
 H     20  17  14     2.022006958774   109.47120229    60.00008529
 H     20  17  14     2.022006969232   109.47123097   300.00009340
 C     20  17  14     2.910178231234   109.47120280   180.00010078
 H     23  20  17     2.022006961562   109.47120286    60.00008478
 H     23  20  17     2.022006971034   109.47120251   180.00009991
 H     23  20  17     2.022006958749   109.47123133   300.00009246

---------------------
BASIS SET INFORMATION
---------------------
There are 2 groups of distinct atoms

 Group   1 Type C   : 7s4p1d contracted to 3s2p1d pattern {511/31/1}
 Group   2 Type H   : 4s1p contracted to 2s1p pattern {31/1}

Atom   0C    basis set group =>   1
Atom   1H    basis set group =>   2
Atom   2H    basis set group =>   2
Atom   3H    basis set group =>   2
Atom   4C    basis set group =>   1
Atom   5H    basis set group =>   2
Atom   6H    basis set group =>   2
Atom   7C    basis set group =>   1
Atom   8H    basis set group =>   2
Atom   9H    basis set group =>   2
Atom  10C    basis set group =>   1
Atom  11H    basis set group =>   2
Atom  12H    basis set group =>   2
Atom  13C    basis set group =>   1
Atom  14H    basis set group =>   2
Atom  15H    basis set group =>   2
Atom  16C    basis set group =>   1
Atom  17H    basis set group =>   2
Atom  18H    basis set group =>   2
Atom  19C    basis set group =>   1
Atom  20H    basis set group =>   2
Atom  21H    basis set group =>   2
Atom  22C    basis set group =>   1
Atom  23H    basis set group =>   2
Atom  24H    basis set group =>   2
Atom  25H    basis set group =>   2

Checking for AutoStart:
The File: test2-dlpno.gbw exists
Trying to determine its content:
     ... Fine, the file contains calculation information
     ... Fine, the calculation information was read
     ... Fine, the file contains a basis set
     ... Fine, the basis set was read
     ... Fine, the file contains a geometry
     ... Fine, the geometry was read
     ... Fine, the file contains a set of orbitals
     ... Fine, the orbitals can be read
     => possible old guess file was deleted
     => GBW file was renamed to GES file
     => GES file is set as startup file
     => Guess is set to MORead
     ... now leaving AutoStart

------------------------------------------------------------------------------
                           ORCA GTO INTEGRAL CALCULATION
------------------------------------------------------------------------------

                         BASIS SET STATISTICS AND STARTUP INFO

 # of primitive gaussian shells          ...  186
 # of primitive gaussian functions       ...  318
 # of contracted shells                  ...  102
 # of contracted basis functions         ...  202
 Highest angular momentum                ...    2
 Maximum contraction depth               ...    5
 Integral package used                   ... LIBINT
 Integral threshhold            Thresh   ...  1.000e-10
 Primitive cut-off              TCut     ...  1.000e-11


------------------------------ INTEGRAL EVALUATION ----------------------------


 * One electron integrals 
 Pre-screening matrix                    ... done
 Shell pair data                         ... done (   0.001 sec)

-------------------------------------------------------------------------------
                                 ORCA SCF
-------------------------------------------------------------------------------

------------
SCF SETTINGS
------------
Hamiltonian:
 Density Functional     Method          .... DFT(GTOs)
 Exchange Functional    Exchange        .... B88
   X-Alpha parameter    XAlpha          ....  0.666667
   Becke's b parameter  XBeta           ....  0.004200
 Correlation Functional Correlation     .... LYP
 LDA part of GGA corr.  LDAOpt          .... VWN-3
 Gradients option       PostSCFGGA      .... off
 Hybrid DFT is turned on
   Fraction HF Exchange ScalHFX         ....  0.200000
   Scaling of DF-GGA-X  ScalDFX         ....  0.720000
   Scaling of DF-GGA-C  ScalDFC         ....  0.810000
   Scaling of DF-LDA-C  ScalLDAC        ....  1.000000
   Perturbative correction              ....  0.000000
   Density functional embedding theory  .... OFF
   NL short-range parameter             ....  4.800000


General Settings:
 Integral files         IntName         .... test2-dlpno
 Hartree-Fock type      HFTyp           .... RHF
 Total Charge           Charge          ....    0
 Multiplicity           Mult            ....    1
 Number of Electrons    NEL             ....   66
 Basis Dimension        Dim             ....  202
 Nuclear Repulsion      ENuc            ....    378.3578288967 Eh

Convergence Acceleration:
 DIIS                   CNVDIIS         .... on
   Start iteration      DIISMaxIt       ....    12
   Startup error        DIISStart       ....  0.200000
   # of expansion vecs  DIISMaxEq       ....     5
   Bias factor          DIISBfac        ....   1.050
   Max. coefficient     DIISMaxC        ....  10.000
 Newton-Raphson         CNVNR           .... off
 SOSCF                  CNVSOSCF        .... on
   Start iteration      SOSCFMaxIt      ....   150
   Startup grad/error   SOSCFStart      ....  0.003300
 Level Shifting         CNVShift        .... on
   Level shift para.    LevelShift      ....    0.2500
   Turn off err/grad.   ShiftErr        ....    0.0010
 Zerner damping         CNVZerner       .... off
 Static damping         CNVDamp         .... on
   Fraction old density DampFac         ....    0.7000
   Max. Damping (<1)    DampMax         ....    0.9800
   Min. Damping (>=0)   DampMin         ....    0.0000
   Turn off err/grad.   DampErr         ....    0.1000
 Fernandez-Rico         CNVRico         .... off

SCF Procedure:
 Maximum # iterations   MaxIter         ....   125
 SCF integral mode      SCFMode         .... Direct
   Integral package                     .... LIBINT
 Reset frequency        DirectResetFreq ....    20
 Integral Threshold     Thresh          ....  1.000e-10 Eh
 Primitive CutOff       TCut            ....  1.000e-11 Eh

Convergence Tolerance:
 Convergence Check Mode ConvCheckMode   .... Total+1el-Energy
 Convergence forced     ConvForced      .... 0
 Energy Change          TolE            ....  1.000e-06 Eh
 1-El. energy change                    ....  1.000e-03 Eh
 Orbital Gradient       TolG            ....  5.000e-05
 Orbital Rotation angle TolX            ....  5.000e-05
 DIIS Error             TolErr          ....  1.000e-06


Diagonalization of the overlap matrix:
Smallest eigenvalue                        ... 8.523e-04
Time for diagonalization                   ...    0.007 sec
Threshold for overlap eigenvalues          ... 1.000e-08
Number of eigenvalues below threshold      ... 0
Time for construction of square roots      ...    0.006 sec
Total time needed                          ...    0.013 sec

---------------------
INITIAL GUESS: MOREAD
---------------------
Guess MOs are being read from file: test2-dlpno.ges
Input Geometry matches current geometry (good)
Input basis set matches current basis set (good)
MOs were renormalized
MOs were reorthogonalized (Cholesky)
                      ------------------
                      INITIAL GUESS DONE (   0.0 sec)
                      ------------------
-------------------
DFT GRID GENERATION
-------------------

General Integration Accuracy     IntAcc      ...  5.340
Radial Grid Type                 RadialGrid  ... Gauss-Chebyshev
Angular Grid (max. acc.)         AngularGrid ... Lebedev-590
Angular grid pruning method      GridPruning ... 3 (G Style)
Weight generation scheme         WeightScheme... Becke
Basis function cutoff            BFCut       ...    1.0000e-10
Integration weight cutoff        WCut        ...    1.0000e-14
Grids for H and He will be reduced by one unit

# of grid points (after initial pruning)     ... 330884 (   0.2 sec)
# of grid points (after weights+screening)   ... 293848 (   1.5 sec)
nearest neighbour list constructed           ...    0.0 sec
Grid point re-assignment to atoms done       ...    0.1 sec
Grid point division into batches done        ...    2.8 sec
Reduced shell lists constructed in    4.9 sec

Total number of grid points                  ...   293848
Total number of batches                      ...     4602
Average number of points per batch           ...       63
Average number of grid points per atom       ...    11302
Average number of shells per batch           ...    53.59 (52.54%)
Average number of basis functions per batch  ...    99.58 (49.30%)
Average number of large shells per batch     ...    38.44 (71.73%)
Average number of large basis fcns per batch ...    70.17 (70.47%)
Maximum spatial batch extension              ...  15.61, 19.77, 17.01 au
Average spatial batch extension              ...   1.59,  1.64,  1.64 au

Time for grid setup =    6.551 sec

--------------
SCF ITERATIONS
--------------
ITER       Energy         Delta-E        Max-DP      RMS-DP      [F,P]     Damp
               ***  Starting incremental Fock matrix formation  ***
                      *** Initiating the SOSCF procedure ***
                      *** Re-Reading the Fockian *** 
                      *** Removing any level shift *** 
ITER      Energy       Delta-E        Grad      Rot      Max-DP    RMS-DP
  0   -315.46482980 -315.4648297962  0.000011  0.000011  0.000030  0.000001
               *** Restarting incremental Fock matrix formation ***
                 **** Energy Check signals convergence ****
              ***Rediagonalizing the Fockian in SOSCF/NRSCF***

               *****************************************************
               *                     SUCCESS                       *
               *           SCF CONVERGED AFTER   1 CYCLES          *
               *****************************************************


----------------
TOTAL SCF ENERGY
----------------

Total Energy       :         -315.46482980 Eh           -8584.23443 eV

Components:
Nuclear Repulsion  :          378.35782890 Eh           10295.63994 eV
Electronic Energy  :         -693.82265869 Eh          -18879.87438 eV
One Electron Energy:        -1172.08876796 Eh          -31894.15684 eV
Two Electron Energy:          478.26610927 Eh           13014.28247 eV

Virial components:
Potential Energy   :         -627.49501251 Eh          -17075.00737 eV
Kinetic Energy     :          312.03018272 Eh            8490.77293 eV
Virial Ratio       :            2.01100742


DFT components:
N(Alpha)           :       32.999986124555 electrons
N(Beta)            :       32.999986124555 electrons
N(Total)           :       65.999972249110 electrons
E(X)               :      -37.980469964811 Eh       
E(C)               :       -2.724950280666 Eh       
E(XC)              :      -40.705420245477 Eh       
DFET-embed. en.    :        0.000000000000 Eh       

---------------
SCF CONVERGENCE
---------------

  Last Energy change         ...   -1.2270e-09  Tolerance :   1.0000e-06
  Last MAX-Density change    ...    2.8242e-05  Tolerance :   1.0000e-05
  Last RMS-Density change    ...    8.2388e-07  Tolerance :   1.0000e-06
  Last Orbital Gradient      ...    7.9548e-06  Tolerance :   5.0000e-05
  Last Orbital Rotation      ...    1.1109e-05  Tolerance :   5.0000e-05

             **** THE GBW FILE WAS UPDATED (test2-dlpno.gbw) ****
             **** DENSITY FILE WAS UPDATED (test2-dlpno.scfp) ****
             **** ENERGY FILE WAS UPDATED (test2-dlpno.en.tmp) ****
             **** THE GBW FILE WAS UPDATED (test2-dlpno.gbw) ****
             **** DENSITY FILE WAS UPDATED (test2-dlpno.scfp) ****
----------------
ORBITAL ENERGIES
----------------

  NO   OCC          E(Eh)            E(eV) 
   0   2.0000     -10.168745      -276.7056 
   1   2.0000     -10.168743      -276.7056 
   2   2.0000     -10.166422      -276.6424 
   3   2.0000     -10.166418      -276.6423 
   4   2.0000     -10.166095      -276.6335 
   5   2.0000     -10.166050      -276.6323 
   6   2.0000     -10.163580      -276.5651 
   7   2.0000     -10.163579      -276.5651 
   8   2.0000      -0.804083       -21.8802 
   9   2.0000      -0.780103       -21.2277 
  10   2.0000      -0.741404       -20.1746 
  11   2.0000      -0.690980       -18.8025 
  12   2.0000      -0.634047       -17.2533 
  13   2.0000      -0.585752       -15.9391 
  14   2.0000      -0.576933       -15.6992 
  15   2.0000      -0.569906       -15.5079 
  16   2.0000      -0.490724       -13.3533 
  17   2.0000      -0.468860       -12.7583 
  18   2.0000      -0.435903       -11.8615 
  19   2.0000      -0.435282       -11.8446 
  20   2.0000      -0.418664       -11.3924 
  21   2.0000      -0.404220       -10.9994 
  22   2.0000      -0.397967       -10.8292 
  23   2.0000      -0.383557       -10.4371 
  24   2.0000      -0.363255        -9.8847 
  25   2.0000      -0.351862        -9.5746 
  26   2.0000      -0.341325        -9.2879 
  27   2.0000      -0.340340        -9.2611 
  28   2.0000      -0.333102        -9.0642 
  29   2.0000      -0.332166        -9.0387 
  30   2.0000      -0.331930        -9.0323 
  31   2.0000      -0.326834        -8.8936 
  32   2.0000      -0.281574        -7.6620 
  33   0.0000       0.055867         1.5202 
  34   0.0000       0.065445         1.7808 
  35   0.0000       0.082223         2.2374 
  36   0.0000       0.084470         2.2986 
  37   0.0000       0.089461         2.4344 
  38   0.0000       0.111306         3.0288 
  39   0.0000       0.114469         3.1149 
  40   0.0000       0.115060         3.1309 
  41   0.0000       0.145157         3.9499 
  42   0.0000       0.151255         4.1159 
  43   0.0000       0.151631         4.1261 
  44   0.0000       0.158422         4.3109 
  45   0.0000       0.163205         4.4410 
  46   0.0000       0.171410         4.6643 
  47   0.0000       0.175976         4.7885 
  48   0.0000       0.177067         4.8182 
  49   0.0000       0.205781         5.5996 
  50   0.0000       0.206485         5.6187 
  51   0.0000       0.208168         5.6645 
  52   0.0000       0.210776         5.7355 
  53   0.0000       0.232970         6.3394 
  54   0.0000       0.237358         6.4588 
  55   0.0000       0.258128         7.0240 
  56   0.0000       0.288969         7.8632 
  57   0.0000       0.291121         7.9218 
  58   0.0000       0.386200        10.5090 
  59   0.0000       0.421534        11.4705 
  60   0.0000       0.432198        11.7607 
  61   0.0000       0.434476        11.8227 
  62   0.0000       0.435501        11.8506 
  63   0.0000       0.438262        11.9257 
  64   0.0000       0.453180        12.3316 
  65   0.0000       0.455235        12.3876 
  66   0.0000       0.493236        13.4216 
  67   0.0000       0.513955        13.9854 
  68   0.0000       0.517917        14.0932 
  69   0.0000       0.526019        14.3137 
  70   0.0000       0.580071        15.7845 
  71   0.0000       0.627886        17.0857 
  72   0.0000       0.633517        17.2389 
  73   0.0000       0.650949        17.7132 
  74   0.0000       0.655153        17.8276 
  75   0.0000       0.659578        17.9480 
  76   0.0000       0.666161        18.1272 
  77   0.0000       0.670718        18.2512 
  78   0.0000       0.674646        18.3580 
  79   0.0000       0.674795        18.3621 
  80   0.0000       0.682579        18.5739 
  81   0.0000       0.683732        18.6053 
  82   0.0000       0.694209        18.8904 
  83   0.0000       0.699427        19.0324 
  84   0.0000       0.703214        19.1354 
  85   0.0000       0.704431        19.1685 
  86   0.0000       0.710134        19.3237 
  87   0.0000       0.712387        19.3850 
  88   0.0000       0.716220        19.4893 
  89   0.0000       0.717579        19.5263 
  90   0.0000       0.722885        19.6707 
  91   0.0000       0.732601        19.9351 
  92   0.0000       0.747229        20.3331 
  93   0.0000       0.748588        20.3701 
  94   0.0000       0.751084        20.4380 
  95   0.0000       0.756440        20.5838 
  96   0.0000       0.767013        20.8715 
  97   0.0000       0.789251        21.4766 
  98   0.0000       0.855312        23.2742 
  99   0.0000       0.932899        25.3855 
 100   0.0000       1.006951        27.4005 
 101   0.0000       1.020744        27.7759 
 102   0.0000       1.023865        27.8608 
 103   0.0000       1.040801        28.3216 
 104   0.0000       1.044470        28.4215 
 105   0.0000       1.049490        28.5581 
 106   0.0000       1.056683        28.7538 
 107   0.0000       1.072017        29.1711 
 108   0.0000       1.130598        30.7651 
 109   0.0000       1.199031        32.6273 
 110   0.0000       1.266677        34.4680 
 111   0.0000       1.306349        35.5476 
 112   0.0000       1.338598        36.4251 
 113   0.0000       1.354388        36.8548 
 114   0.0000       1.366016        37.1712 
 115   0.0000       1.374711        37.4078 
 116   0.0000       1.395191        37.9651 
 117   0.0000       1.396185        37.9921 
 118   0.0000       1.397004        38.0144 
 119   0.0000       1.411310        38.4037 
 120   0.0000       1.522890        41.4400 
 121   0.0000       1.552121        42.2354 
 122   0.0000       1.552457        42.2445 
 123   0.0000       1.654041        45.0087 
 124   0.0000       1.700286        46.2671 
 125   0.0000       1.710259        46.5385 
 126   0.0000       1.746580        47.5269 
 127   0.0000       1.752036        47.6753 
 128   0.0000       1.761651        47.9370 
 129   0.0000       1.776362        48.3373 
 130   0.0000       1.776960        48.3535 
 131   0.0000       1.782396        48.5015 
 132   0.0000       1.786360        48.6093 
 133   0.0000       1.797652        48.9166 
 134   0.0000       1.798839        48.9489 
 135   0.0000       1.811678        49.2983 
 136   0.0000       1.816178        49.4207 
 137   0.0000       1.837295        49.9953 
 138   0.0000       1.837964        50.0135 
 139   0.0000       1.838478        50.0275 
 140   0.0000       1.862632        50.6848 
 141   0.0000       1.877392        51.0864 
 142   0.0000       1.881305        51.1929 
 143   0.0000       1.893382        51.5215 
 144   0.0000       1.901675        51.7472 
 145   0.0000       1.902099        51.7587 
 146   0.0000       1.915019        52.1103 
 147   0.0000       1.927784        52.4577 
 148   0.0000       1.946774        52.9744 
 149   0.0000       1.949406        53.0460 
 150   0.0000       1.969423        53.5907 
 151   0.0000       1.969918        53.6042 
 152   0.0000       1.981287        53.9136 
 153   0.0000       2.014433        54.8155 
 154   0.0000       2.036772        55.4234 
 155   0.0000       2.039577        55.4997 
 156   0.0000       2.087796        56.8118 
 157   0.0000       2.097422        57.0737 
 158   0.0000       2.107311        57.3428 
 159   0.0000       2.122526        57.7569 
 160   0.0000       2.185013        59.4572 
 161   0.0000       2.220871        60.4330 
 162   0.0000       2.294814        62.4451 
 163   0.0000       2.312005        62.9129 
 164   0.0000       2.350722        63.9664 
 165   0.0000       2.411314        65.6152 
 166   0.0000       2.414675        65.7067 
 167   0.0000       2.425682        66.0062 
 168   0.0000       2.438775        66.3624 
 169   0.0000       2.438941        66.3670 
 170   0.0000       2.464807        67.0708 
 171   0.0000       2.492393        67.8215 
 172   0.0000       2.502106        68.0858 
 173   0.0000       2.513531        68.3967 
 174   0.0000       2.517911        68.5158 
 175   0.0000       2.582671        70.2780 
 176   0.0000       2.598004        70.6953 
 177   0.0000       2.623435        71.3873 
 178   0.0000       2.652025        72.1653 
 179   0.0000       2.656630        72.2906 
 180   0.0000       2.660873        72.4060 
 181   0.0000       2.682336        72.9901 
 182   0.0000       2.695252        73.3415 
 183   0.0000       2.705481        73.6199 
 184   0.0000       2.825108        76.8751 
 185   0.0000       2.871389        78.1345 
 186   0.0000       2.887516        78.5733 
 187   0.0000       2.900439        78.9250 
 188   0.0000       2.904436        79.0337 
 189   0.0000       2.921261        79.4916 
 190   0.0000       2.936110        79.8956 
 191   0.0000       2.965071        80.6837 
 192   0.0000       2.985796        81.2476 
 193   0.0000       2.987839        81.3032 
 194   0.0000       3.017148        82.1008 
 195   0.0000       3.057063        83.1869 
 196   0.0000       3.075445        83.6871 
 197   0.0000       3.105047        84.4926 
 198   0.0000       3.111607        84.6711 
 199   0.0000       3.149548        85.7036 
 200   0.0000       3.153606        85.8140 
 201   0.0000       3.154368        85.8347 

                    ********************************
                    * MULLIKEN POPULATION ANALYSIS *
                    ********************************

-----------------------
MULLIKEN ATOMIC CHARGES
-----------------------
   0 C :    0.062831
   1 H :   -0.005335
   2 H :   -0.005302
   3 H :   -0.005109
   4 C :    0.004091
   5 H :   -0.013773
   6 H :   -0.013771
   7 C :    0.016052
   8 H :   -0.019568
   9 H :   -0.019561
  10 C :    0.042460
  11 H :   -0.021508
  12 H :   -0.021507
  13 C :    0.042460
  14 H :   -0.021505
  15 H :   -0.021509
  16 C :    0.016052
  17 H :   -0.019563
  18 H :   -0.019565
  19 C :    0.004091
  20 H :   -0.013771
  21 H :   -0.013773
  22 C :    0.062831
  23 H :   -0.005319
  24 H :   -0.005109
  25 H :   -0.005318
Sum of atomic charges:   -0.0000000

--------------------------------
MULLIKEN REDUCED ORBITAL CHARGES
--------------------------------
  0 C s       :     2.932786  s :     2.932786
      pz      :     0.992716  p :     2.973975
      px      :     0.983236
      py      :     0.998023
      dz2     :     0.008471  d :     0.030407
      dxz     :     0.003709
      dyz     :     0.005980
      dx2y2   :     0.009080
      dxy     :     0.003168
  1 H s       :     0.980661  s :     0.980661
      pz      :     0.004841  p :     0.024674
      px      :     0.006394
      py      :     0.013439
  2 H s       :     0.980628  s :     0.980628
      pz      :     0.011072  p :     0.024674
      px      :     0.006394
      py      :     0.007208
  3 H s       :     0.980677  s :     0.980677
      pz      :     0.004867  p :     0.024432
      px      :     0.014352
      py      :     0.005213
  4 C s       :     2.996407  s :     2.996407
      pz      :     0.991972  p :     2.961720
      px      :     0.980827
      py      :     0.988921
      dz2     :     0.008888  d :     0.037781
      dxz     :     0.006960
      dyz     :     0.006453
      dx2y2   :     0.008976
      dxy     :     0.006504
  5 H s       :     0.990330  s :     0.990330
      pz      :     0.004831  p :     0.023443
      px      :     0.005542
      py      :     0.013070
  6 H s       :     0.990328  s :     0.990328
      pz      :     0.010683  p :     0.023443
      px      :     0.005561
      py      :     0.007200
  7 C s       :     2.992046  s :     2.992046
      pz      :     0.999100  p :     2.954636
      px      :     0.968715
      py      :     0.986820
      dz2     :     0.008883  d :     0.037267
      dxz     :     0.006709
      dyz     :     0.006384
      dx2y2   :     0.008858
      dxy     :     0.006433
  8 H s       :     0.996024  s :     0.996024
      pz      :     0.010885  p :     0.023544
      px      :     0.005517
      py      :     0.007142
  9 H s       :     0.996017  s :     0.996017
      pz      :     0.004746  p :     0.023544
      px      :     0.005499
      py      :     0.013298
 10 C s       :     2.967697  s :     2.967697
      pz      :     0.990711  p :     2.952570
      px      :     0.977605
      py      :     0.984254
      dz2     :     0.008850  d :     0.037274
      dxz     :     0.006755
      dyz     :     0.006385
      dx2y2   :     0.008832
      dxy     :     0.006452
 11 H s       :     0.997932  s :     0.997932
      pz      :     0.010845  p :     0.023576
      px      :     0.005559
      py      :     0.007172
 12 H s       :     0.997931  s :     0.997931
      pz      :     0.004802  p :     0.023576
      px      :     0.005540
      py      :     0.013234
 13 C s       :     2.967697  s :     2.967697
      pz      :     0.990707  p :     2.952570
      px      :     0.977605
      py      :     0.984257
      dz2     :     0.008850  d :     0.037274
      dxz     :     0.006755
      dyz     :     0.006385
      dx2y2   :     0.008832
      dxy     :     0.006452
 14 H s       :     0.997930  s :     0.997930
      pz      :     0.010845  p :     0.023576
      px      :     0.005559
      py      :     0.007172
 15 H s       :     0.997933  s :     0.997933
      pz      :     0.004802  p :     0.023576
      px      :     0.005540
      py      :     0.013234
 16 C s       :     2.992046  s :     2.992046
      pz      :     0.999112  p :     2.954636
      px      :     0.968715
      py      :     0.986809
      dz2     :     0.008883  d :     0.037267
      dxz     :     0.006710
      dyz     :     0.006383
      dx2y2   :     0.008858
      dxy     :     0.006433
 17 H s       :     0.996020  s :     0.996020
      pz      :     0.010885  p :     0.023544
      px      :     0.005517
      py      :     0.007142
 18 H s       :     0.996022  s :     0.996022
      pz      :     0.004746  p :     0.023544
      px      :     0.005499
      py      :     0.013298
 19 C s       :     2.996408  s :     2.996408
      pz      :     0.991958  p :     2.961720
      px      :     0.980827
      py      :     0.988934
      dz2     :     0.008890  d :     0.037781
      dxz     :     0.006961
      dyz     :     0.006448
      dx2y2   :     0.008979
      dxy     :     0.006503
 20 H s       :     0.990328  s :     0.990328
      pz      :     0.010686  p :     0.023443
      px      :     0.005561
      py      :     0.007196
 21 H s       :     0.990330  s :     0.990330
      pz      :     0.004832  p :     0.023443
      px      :     0.005541
      py      :     0.013070
 22 C s       :     2.932786  s :     2.932786
      pz      :     0.992715  p :     2.973975
      px      :     0.983236
      py      :     0.998024
      dz2     :     0.008472  d :     0.030407
      dxz     :     0.003723
      dyz     :     0.005963
      dx2y2   :     0.009095
      dxy     :     0.003154
 23 H s       :     0.980645  s :     0.980645
      pz      :     0.011076  p :     0.024674
      px      :     0.006403
      py      :     0.007196
 24 H s       :     0.980677  s :     0.980677
      pz      :     0.004868  p :     0.024432
      px      :     0.014352
      py      :     0.005213
 25 H s       :     0.980644  s :     0.980644
      pz      :     0.004841  p :     0.024674
      px      :     0.006385
      py      :     0.013448


                     *******************************
                     * LOEWDIN POPULATION ANALYSIS *
                     *******************************

----------------------
LOEWDIN ATOMIC CHARGES
----------------------
   0 C :   -0.045523
   1 H :    0.015549
   2 H :    0.015558
   3 H :    0.015510
   4 C :   -0.025705
   5 H :    0.011879
   6 H :    0.011875
   7 C :   -0.022547
   8 H :    0.011158
   9 H :    0.011158
  10 C :   -0.021304
  11 H :    0.011197
  12 H :    0.011196
  13 C :   -0.021304
  14 H :    0.011197
  15 H :    0.011196
  16 C :   -0.022547
  17 H :    0.011159
  18 H :    0.011158
  19 C :   -0.025705
  20 H :    0.011877
  21 H :    0.011877
  22 C :   -0.045523
  23 H :    0.015553
  24 H :    0.015510
  25 H :    0.015553

-------------------------------
LOEWDIN REDUCED ORBITAL CHARGES
-------------------------------
  0 C s       :     2.820097  s :     2.820097
      pz      :     1.038476  p :     3.149906
      px      :     1.055507
      py      :     1.055923
      dz2     :     0.020219  d :     0.075520
      dxz     :     0.009405
      dyz     :     0.015463
      dx2y2   :     0.022494
      dxy     :     0.007939
  1 H s       :     0.915649  s :     0.915649
      pz      :     0.014365  p :     0.068802
      px      :     0.016665
      py      :     0.037772
  2 H s       :     0.915641  s :     0.915641
      pz      :     0.032459  p :     0.068801
      px      :     0.016667
      py      :     0.019675
  3 H s       :     0.915247  s :     0.915247
      pz      :     0.014806  p :     0.069243
      px      :     0.040505
      py      :     0.013932
  4 C s       :     2.827759  s :     2.827759
      pz      :     1.034370  p :     3.107314
      px      :     1.020889
      py      :     1.052055
      dz2     :     0.021486  d :     0.090632
      dxz     :     0.015310
      dyz     :     0.016659
      dx2y2   :     0.023221
      dxy     :     0.013957
  5 H s       :     0.918409  s :     0.918409
      pz      :     0.014109  p :     0.069712
      px      :     0.017772
      py      :     0.037831
  6 H s       :     0.918414  s :     0.918414
      pz      :     0.032282  p :     0.069711
      px      :     0.017826
      py      :     0.019603
  7 C s       :     2.828958  s :     2.828958
      pz      :     1.035633  p :     3.102944
      px      :     1.015479
      py      :     1.051831
      dz2     :     0.021467  d :     0.090646
      dxz     :     0.015309
      dyz     :     0.016519
      dx2y2   :     0.023371
      dxy     :     0.013980
  8 H s       :     0.918891  s :     0.918891
      pz      :     0.032602  p :     0.069951
      px      :     0.017795
      py      :     0.019554
  9 H s       :     0.918892  s :     0.918892
      pz      :     0.014192  p :     0.069950
      px      :     0.017738
      py      :     0.038019
 10 C s       :     2.827598  s :     2.827598
      pz      :     1.035106  p :     3.103028
      px      :     1.016230
      py      :     1.051692
      dz2     :     0.021411  d :     0.090678
      dxz     :     0.015440
      dyz     :     0.016568
      dx2y2   :     0.023228
      dxy     :     0.014031
 11 H s       :     0.918848  s :     0.918848
      pz      :     0.032612  p :     0.069955
      px      :     0.017826
      py      :     0.019517
 12 H s       :     0.918850  s :     0.918850
      pz      :     0.014151  p :     0.069955
      px      :     0.017768
      py      :     0.038036
 13 C s       :     2.827598  s :     2.827598
      pz      :     1.035105  p :     3.103028
      px      :     1.016230
      py      :     1.051693
      dz2     :     0.021411  d :     0.090678
      dxz     :     0.015440
      dyz     :     0.016568
      dx2y2   :     0.023228
      dxy     :     0.014031
 14 H s       :     0.918848  s :     0.918848
      pz      :     0.032612  p :     0.069955
      px      :     0.017825
      py      :     0.019517
 15 H s       :     0.918850  s :     0.918850
      pz      :     0.014151  p :     0.069955
      px      :     0.017768
      py      :     0.038036
 16 C s       :     2.828958  s :     2.828958
      pz      :     1.035635  p :     3.102944
      px      :     1.015479
      py      :     1.051829
      dz2     :     0.021467  d :     0.090646
      dxz     :     0.015310
      dyz     :     0.016518
      dx2y2   :     0.023372
      dxy     :     0.013978
 17 H s       :     0.918891  s :     0.918891
      pz      :     0.032602  p :     0.069950
      px      :     0.017796
      py      :     0.019553
 18 H s       :     0.918892  s :     0.918892
      pz      :     0.014192  p :     0.069950
      px      :     0.017737
      py      :     0.038021
 19 C s       :     2.827759  s :     2.827759
      pz      :     1.034380  p :     3.107314
      px      :     1.020889
      py      :     1.052045
      dz2     :     0.021488  d :     0.090632
      dxz     :     0.015311
      dyz     :     0.016651
      dx2y2   :     0.023226
      dxy     :     0.013955
 20 H s       :     0.918411  s :     0.918411
      pz      :     0.032290  p :     0.069712
      px      :     0.017828
      py      :     0.019594
 21 H s       :     0.918412  s :     0.918412
      pz      :     0.014109  p :     0.069712
      px      :     0.017770
      py      :     0.037832
 22 C s       :     2.820097  s :     2.820097
      pz      :     1.038486  p :     3.149906
      px      :     1.055507
      py      :     1.055913
      dz2     :     0.020222  d :     0.075520
      dxz     :     0.009440
      dyz     :     0.015423
      dx2y2   :     0.022531
      dxy     :     0.007904
 23 H s       :     0.915645  s :     0.915645
      pz      :     0.032467  p :     0.068802
      px      :     0.016694
      py      :     0.019640
 24 H s       :     0.915247  s :     0.915247
      pz      :     0.014806  p :     0.069243
      px      :     0.040504
      py      :     0.013933
 25 H s       :     0.915645  s :     0.915645
      pz      :     0.014364  p :     0.068802
      px      :     0.016638
      py      :     0.037799


                      *****************************
                      * MAYER POPULATION ANALYSIS *
                      *****************************

  NA   - Mulliken gross atomic population
  ZA   - Total nuclear charge
  QA   - Mulliken gross atomic charge
  VA   - Mayer's total valence
  BVA  - Mayer's bonded valence
  FA   - Mayer's free valence

  ATOM       NA         ZA         QA         VA         BVA        FA
  0 C      5.9372     6.0000     0.0628     4.0139     4.0139    -0.0000
  1 H      1.0053     1.0000    -0.0053     0.9917     0.9917    -0.0000
  2 H      1.0053     1.0000    -0.0053     0.9916     0.9916    -0.0000
  3 H      1.0051     1.0000    -0.0051     0.9831     0.9831    -0.0000
  4 C      5.9959     6.0000     0.0041     4.1223     4.1223    -0.0000
  5 H      1.0138     1.0000    -0.0138     0.9780     0.9780    -0.0000
  6 H      1.0138     1.0000    -0.0138     0.9780     0.9780     0.0000
  7 C      5.9839     6.0000     0.0161     4.0919     4.0919    -0.0000
  8 H      1.0196     1.0000    -0.0196     0.9833     0.9833     0.0000
  9 H      1.0196     1.0000    -0.0196     0.9833     0.9833     0.0000
 10 C      5.9575     6.0000     0.0425     4.0776     4.0776     0.0000
 11 H      1.0215     1.0000    -0.0215     0.9841     0.9841     0.0000
 12 H      1.0215     1.0000    -0.0215     0.9841     0.9841    -0.0000
 13 C      5.9575     6.0000     0.0425     4.0776     4.0776     0.0000
 14 H      1.0215     1.0000    -0.0215     0.9841     0.9841     0.0000
 15 H      1.0215     1.0000    -0.0215     0.9841     0.9841    -0.0000
 16 C      5.9839     6.0000     0.0161     4.0919     4.0919     0.0000
 17 H      1.0196     1.0000    -0.0196     0.9833     0.9833     0.0000
 18 H      1.0196     1.0000    -0.0196     0.9833     0.9833     0.0000
 19 C      5.9959     6.0000     0.0041     4.1223     4.1223     0.0000
 20 H      1.0138     1.0000    -0.0138     0.9780     0.9780    -0.0000
 21 H      1.0138     1.0000    -0.0138     0.9780     0.9780     0.0000
 22 C      5.9372     6.0000     0.0628     4.0139     4.0139     0.0000
 23 H      1.0053     1.0000    -0.0053     0.9917     0.9917     0.0000
 24 H      1.0051     1.0000    -0.0051     0.9831     0.9831    -0.0000
 25 H      1.0053     1.0000    -0.0053     0.9917     0.9917     0.0000

  Mayer bond orders larger than 0.100000
B(  0-C ,  1-H ) :   0.9694 B(  0-C ,  2-H ) :   0.9694 B(  0-C ,  3-H ) :   0.9631 
B(  0-C ,  4-C ) :   1.1051 B(  4-C ,  5-H ) :   0.9455 B(  4-C ,  6-H ) :   0.9455 
B(  4-C ,  7-C ) :   1.0909 B(  7-C ,  8-H ) :   0.9425 B(  7-C ,  9-H ) :   0.9425 
B(  7-C , 10-C ) :   1.0884 B( 10-C , 11-H ) :   0.9379 B( 10-C , 12-H ) :   0.9379 
B( 10-C , 13-C ) :   1.0894 B( 13-C , 14-H ) :   0.9379 B( 13-C , 15-H ) :   0.9379 
B( 13-C , 16-C ) :   1.0884 B( 16-C , 17-H ) :   0.9425 B( 16-C , 18-H ) :   0.9425 
B( 16-C , 19-C ) :   1.0909 B( 19-C , 20-H ) :   0.9455 B( 19-C , 21-H ) :   0.9455 
B( 19-C , 22-C ) :   1.1051 B( 22-C , 23-H ) :   0.9694 B( 22-C , 24-H ) :   0.9631 
B( 22-C , 25-H ) :   0.9694 

-------
TIMINGS
-------

Total SCF time: 0 days 0 hours 0 min 22 sec 

Total time                  ....      22.597 sec
Sum of individual times     ....      22.362 sec  ( 99.0%)

Fock matrix formation       ....      15.780 sec  ( 69.8%)
  XC integration            ....       5.514 sec  ( 34.9% of F)
    Basis function eval.    ....       2.606 sec  ( 47.3% of XC)
    Density eval.           ....       1.146 sec  ( 20.8% of XC)
    XC-Functional eval.     ....       0.447 sec  (  8.1% of XC)
    XC-Potential eval.      ....       1.107 sec  ( 20.1% of XC)
Diagonalization             ....       0.007 sec  (  0.0%)
Density matrix formation    ....       0.001 sec  (  0.0%)
Population analysis         ....       0.008 sec  (  0.0%)
Initial guess               ....       0.008 sec  (  0.0%)
Orbital Transformation      ....       0.000 sec  (  0.0%)
Orbital Orthonormalization  ....       0.005 sec  (  0.0%)
DIIS solution               ....       0.002 sec  (  0.0%)
SOSCF solution              ....       0.005 sec  (  0.0%)
Grid generation             ....       6.551 sec  ( 29.0%)

-------------------------   --------------------
FINAL SINGLE POINT ENERGY      -315.464829797393
-------------------------   --------------------


                            ***************************************
                            *     ORCA property calculations      *
                            ***************************************

                                    ---------------------
                                    Active property flags
                                    ---------------------
   (+) Dipole Moment


------------------------------------------------------------------------------
                       ORCA ELECTRIC PROPERTIES CALCULATION
------------------------------------------------------------------------------

Dipole Moment Calculation                       ... on
Quadrupole Moment Calculation                   ... off
Polarizability Calculation                      ... off
GBWName                                         ... test2-dlpno.gbw
Electron density file                           ... test2-dlpno.scfp
The origin for moment calculation is the CENTER OF MASS  = (-2.810227, -0.217679  4.755795)

-------------
DIPOLE MOMENT
-------------
                                X             Y             Z
Electronic contribution:      0.00000      -0.00024       0.00014
Nuclear contribution   :     -0.00000       0.00024      -0.00014
                        -----------------------------------------
Total Dipole Moment    :     -0.00000       0.00000      -0.00000
                        -----------------------------------------
Magnitude (a.u.)       :      0.00001
Magnitude (Debye)      :      0.00001



--------------------
Rotational spectrum 
--------------------
 
Rotational constants in cm-1:     0.349628     0.016837     0.016450 
Rotational constants in MHz : 10481.591983   504.772281   493.149909 

 Dipole components along the rotational axes: 
x,y,z [a.u.] :    -0.000000    -0.000000    -0.000005 
x,y,z [Debye]:    -0.000000    -0.000000    -0.000013 

 

Timings for individual modules:

Sum of individual times         ...       22.917 sec (=   0.382 min)
GTO integral calculation        ...        0.281 sec (=   0.005 min)   1.2 %
SCF iterations                  ...       22.636 sec (=   0.377 min)  98.8 %


                 $$$$$$$$$$$$$$$$  JOB NUMBER  2 $$$$$$$$$$$$$$


                       ****************************
                       * Single Point Calculation *
                       ****************************

---------------------------------
CARTESIAN COORDINATES (ANGSTROEM)
---------------------------------
  C     -4.823789   -1.563877    0.000000
  H     -4.467134   -2.572687    0.000000
  H     -4.467116   -1.059478   -0.873651
  H     -5.893789   -1.563863    0.000000
  C     -4.310446   -0.837920    1.257405
  H     -4.665503    0.171453    1.256427
  H     -4.668715   -1.341189    2.131055
  C     -2.770449   -0.840377    1.258814
  H     -2.412180   -0.337435    0.384975
  H     -2.415393   -1.849749    1.260167
  C     -2.257106   -0.113951    2.515948
  H     -2.615443   -0.616846    3.389785
  H     -2.612095    0.895445    2.514553
  C     -0.717109   -0.116511    2.517416
  H     -0.358773    0.386376    1.643574
  H     -0.362121   -1.125907    2.518820
  C     -0.203767    0.609925    3.774544
  H     -0.562105    0.107039    4.648385
  H     -0.558754    1.619322    3.773139
  C      1.336230    0.607364    3.776013
  H      1.694568    1.110251    2.902172
  H      1.691218   -0.402033    3.777416
  C      1.849573    1.333797    5.033142
  H      1.491236    0.830909    5.906983
  H      2.919571    1.332019    5.034162
  H      1.494585    2.343194    5.031741

----------------------------
CARTESIAN COORDINATES (A.U.)
----------------------------
  NO LB      ZA    FRAG     MASS         X           Y           Z
   0 C     6.0000    0    12.011   -9.115639   -2.955299    0.000000
   1 H     1.0000    0     1.008   -8.441660   -4.861673    0.000000
   2 H     1.0000    0     1.008   -8.441625   -2.002124   -1.650962
   3 H     1.0000    0     1.008  -11.137646   -2.955274    0.000000
   4 C     6.0000    0    12.011   -8.145563   -1.583440    2.376151
   5 H     1.0000    0     1.008   -8.816522    0.323999    2.374304
   6 H     1.0000    0     1.008   -8.822594   -2.534480    4.027110
   7 C     6.0000    0    12.011   -5.235390   -1.588082    2.378813
   8 H     1.0000    0     1.008   -4.558360   -0.637659    0.727498
   9 H     1.0000    0     1.008   -4.564431   -3.495520    2.381371
  10 C     6.0000    0    12.011   -4.265313   -0.215337    4.754452
  11 H     1.0000    0     1.008   -4.942471   -1.165669    6.405766
  12 H     1.0000    0     1.008   -4.936144    1.692146    4.751816
  13 C     6.0000    0    12.011   -1.355140   -0.220174    4.757227
  14 H     1.0000    0     1.008   -0.677983    0.730144    3.105904
  15 H     1.0000    0     1.008   -0.684309   -2.127656    4.759879
  16 C     6.0000    0    12.011   -0.385063    1.152592    7.132854
  17 H     1.0000    0     1.008   -1.062224    0.202275    8.784176
  18 H     1.0000    0     1.008   -1.055891    3.060076    7.130200
  19 C     6.0000    0    12.011    2.525110    1.147751    7.135631
  20 H     1.0000    0     1.008    3.202269    2.098070    5.484310
  21 H     1.0000    0     1.008    3.195938   -0.759733    7.138282
  22 C     6.0000    0    12.011    3.495186    2.520512    9.511260
  23 H     1.0000    0     1.008    2.818028    1.570191   11.162581
  24 H     1.0000    0     1.008    5.517190    2.517151    9.513188
  25 H     1.0000    0     1.008    2.824356    4.427995    9.508612

--------------------------------
INTERNAL COORDINATES (ANGSTROEM)
--------------------------------
 C      0   0   0     0.000000000000     0.00000000     0.00000000
 H      1   0   0     1.069999995984     0.00000000     0.00000000
 H      1   2   0     1.069999996412   109.47120272     0.00000000
 H      1   2   3     1.070000000081   109.47123145   119.99999264
 C      1   2   3     1.539999999795   109.47120251   239.99998515
 H      5   1   2     1.070000000952   109.47120230   179.88890033
 H      5   1   2     1.069999999118   109.47120275   299.88891486
 C      5   1   2     1.539999993251   109.47123127    59.88890783
 H      8   5   1     1.069999996698   109.47120316    59.97860807
 H      8   5   1     1.069999996959   109.47123169   299.97861500
 C      8   5   1     1.540000008383   109.47120251   179.97862274
 H     11   8   5     1.069999996583   109.47120246    59.99528586
 H     11   8   5     1.070000004750   109.47123088   299.99529357
 C     11   8   5     1.539999996802   109.47120271   179.99530096
 H     14  11   8     1.070000002506   109.47120253    59.99949653
 H     14  11   8     1.070000004252   109.47123140   299.99950441
 C     14  11   8     1.539999992988   109.47120277   179.99951180
 H     17  14  11     1.069999993487   109.47120289    59.99988436
 H     17  14  11     1.070000004456   109.47123099   299.99989184
 C     17  14  11     1.540000001681   109.47120298   179.99989956
 H     20  17  14     1.069999997607   109.47120229    60.00008529
 H     20  17  14     1.070000003141   109.47123097   300.00009340
 C     20  17  14     1.539999992060   109.47120280   180.00010078
 H     23  20  17     1.069999999083   109.47120286    60.00008478
 H     23  20  17     1.070000004095   109.47120251   180.00009991
 H     23  20  17     1.069999997594   109.47123133   300.00009246

---------------------------
INTERNAL COORDINATES (A.U.)
---------------------------
 C      0   0   0     0.000000000000     0.00000000     0.00000000
 H      1   0   0     2.022006955706     0.00000000     0.00000000
 H      1   2   0     2.022006956515   109.47120272     0.00000000
 H      1   2   3     2.022006963449   109.47123145   119.99999264
 C      1   2   3     2.910178245851   109.47120251   239.99998515
 H      5   1   2     2.022006965094   109.47120230   179.88890033
 H      5   1   2     2.022006961628   109.47120275   299.88891486
 C      5   1   2     2.910178233485   109.47123127    59.88890783
 H      8   5   1     2.022006957056   109.47120316    59.97860807
 H      8   5   1     2.022006957550   109.47123169   299.97861500
 C      8   5   1     2.910178262080   109.47120251   179.97862274
 H     11   8   5     2.022006956838   109.47120246    59.99528586
 H     11   8   5     2.022006972272   109.47123088   299.99529357
 C     11   8   5     2.910178240196   109.47120271   179.99530096
 H     14  11   8     2.022006968032   109.47120253    59.99949653
 H     14  11   8     2.022006971332   109.47123140   299.99950441
 C     14  11   8     2.910178232989   109.47120277   179.99951180
 H     17  14  11     2.022006950987   109.47120289    59.99988436
 H     17  14  11     2.022006971716   109.47123099   299.99989184
 C     17  14  11     2.910178249416   109.47120298   179.99989956
 H     20  17  14     2.022006958774   109.47120229    60.00008529
 H     20  17  14     2.022006969232   109.47123097   300.00009340
 C     20  17  14     2.910178231234   109.47120280   180.00010078
 H     23  20  17     2.022006961562   109.47120286    60.00008478
 H     23  20  17     2.022006971034   109.47120251   180.00009991
 H     23  20  17     2.022006958749   109.47123133   300.00009246

---------------------
BASIS SET INFORMATION
---------------------
There are 2 groups of distinct atoms

 Group   1 Type C   : 7s4p1d contracted to 3s2p1d pattern {511/31/1}
 Group   2 Type H   : 4s1p contracted to 2s1p pattern {31/1}

Atom   0C    basis set group =>   1
Atom   1H    basis set group =>   2
Atom   2H    basis set group =>   2
Atom   3H    basis set group =>   2
Atom   4C    basis set group =>   1
Atom   5H    basis set group =>   2
Atom   6H    basis set group =>   2
Atom   7C    basis set group =>   1
Atom   8H    basis set group =>   2
Atom   9H    basis set group =>   2
Atom  10C    basis set group =>   1
Atom  11H    basis set group =>   2
Atom  12H    basis set group =>   2
Atom  13C    basis set group =>   1
Atom  14H    basis set group =>   2
Atom  15H    basis set group =>   2
Atom  16C    basis set group =>   1
Atom  17H    basis set group =>   2
Atom  18H    basis set group =>   2
Atom  19C    basis set group =>   1
Atom  20H    basis set group =>   2
Atom  21H    basis set group =>   2
Atom  22C    basis set group =>   1
Atom  23H    basis set group =>   2
Atom  24H    basis set group =>   2
Atom  25H    basis set group =>   2
---------------------------------
AUXILIARY/C BASIS SET INFORMATION
---------------------------------
There are 2 groups of distinct atoms

 Group   1 Type C   : 8s6p5d3f contracted to 6s5p4d1f pattern {311111/21111/2111/3}
 Group   2 Type H   : 4s3p2d contracted to 3s2p1d pattern {211/21/2}

Atom   0C    basis set group =>   1
Atom   1H    basis set group =>   2
Atom   2H    basis set group =>   2
Atom   3H    basis set group =>   2
Atom   4C    basis set group =>   1
Atom   5H    basis set group =>   2
Atom   6H    basis set group =>   2
Atom   7C    basis set group =>   1
Atom   8H    basis set group =>   2
Atom   9H    basis set group =>   2
Atom  10C    basis set group =>   1
Atom  11H    basis set group =>   2
Atom  12H    basis set group =>   2
Atom  13C    basis set group =>   1
Atom  14H    basis set group =>   2
Atom  15H    basis set group =>   2
Atom  16C    basis set group =>   1
Atom  17H    basis set group =>   2
Atom  18H    basis set group =>   2
Atom  19C    basis set group =>   1
Atom  20H    basis set group =>   2
Atom  21H    basis set group =>   2
Atom  22C    basis set group =>   1
Atom  23H    basis set group =>   2
Atom  24H    basis set group =>   2
Atom  25H    basis set group =>   2
------------------------------------------------------------------------------
                           ORCA GTO INTEGRAL CALCULATION
------------------------------------------------------------------------------

                         BASIS SET STATISTICS AND STARTUP INFO

 # of primitive gaussian shells          ...  186
 # of primitive gaussian functions       ...  318
 # of contracted shells                  ...  102
 # of contracted basis functions         ...  202
 Highest angular momentum                ...    2
 Maximum contraction depth               ...    5
 Integral package used                   ... LIBINT
 Integral threshhold            Thresh   ...  1.000e-10
 Primitive cut-off              TCut     ...  1.000e-11


------------------------------ INTEGRAL EVALUATION ----------------------------


 * One electron integrals 
 Pre-screening matrix                    ... done
 Shell pair data                         ... done (   0.001 sec)

-------------------------------------------------------------------------------
                                 ORCA SCF
-------------------------------------------------------------------------------

------------
SCF SETTINGS
------------
Hamiltonian:
 Density Functional     Method          .... DFT(GTOs)
 Exchange Functional    Exchange        .... B88
   X-Alpha parameter    XAlpha          ....  0.666667
   Becke's b parameter  XBeta           ....  0.004200
 Correlation Functional Correlation     .... LYP
 LDA part of GGA corr.  LDAOpt          .... VWN-3
 Gradients option       PostSCFGGA      .... off
 Hybrid DFT is turned on
   Fraction HF Exchange ScalHFX         ....  0.803300
   Scaling of DF-GGA-X  ScalDFX         ....  0.210700
   Scaling of DF-GGA-C  ScalDFC         ....  0.678900
   Scaling of DF-LDA-C  ScalLDAC        ....  0.678900
   Perturbative correction              ....  0.321100
   Density functional embedding theory  .... OFF
   NL short-range parameter             ....  4.800000


General Settings:
 Integral files         IntName         .... test2-dlpno_job2
 Hartree-Fock type      HFTyp           .... RHF
 Total Charge           Charge          ....    0
 Multiplicity           Mult            ....    1
 Number of Electrons    NEL             ....   66
 Basis Dimension        Dim             ....  202
 Nuclear Repulsion      ENuc            ....    378.3578288967 Eh

Convergence Acceleration:
 DIIS                   CNVDIIS         .... on
   Start iteration      DIISMaxIt       ....    12
   Startup error        DIISStart       ....  0.200000
   # of expansion vecs  DIISMaxEq       ....     5
   Bias factor          DIISBfac        ....   1.050
   Max. coefficient     DIISMaxC        ....  10.000
 Newton-Raphson         CNVNR           .... off
 SOSCF                  CNVSOSCF        .... on
   Start iteration      SOSCFMaxIt      ....   150
   Startup grad/error   SOSCFStart      ....  0.003300
 Level Shifting         CNVShift        .... on
   Level shift para.    LevelShift      ....    0.2500
   Turn off err/grad.   ShiftErr        ....    0.0010
 Zerner damping         CNVZerner       .... off
 Static damping         CNVDamp         .... on
   Fraction old density DampFac         ....    0.7000
   Max. Damping (<1)    DampMax         ....    0.9800
   Min. Damping (>=0)   DampMin         ....    0.0000
   Turn off err/grad.   DampErr         ....    0.1000
 Fernandez-Rico         CNVRico         .... off

SCF Procedure:
 Maximum # iterations   MaxIter         ....     1
 SCF integral mode      SCFMode         .... Direct
   Integral package                     .... LIBINT
 Reset frequency        DirectResetFreq ....    20
 Integral Threshold     Thresh          ....  1.000e-10 Eh
 Primitive CutOff       TCut            ....  1.000e-11 Eh

Convergence Tolerance:
 Convergence Check Mode ConvCheckMode   .... Total+1el-Energy
 Convergence forced     ConvForced      .... 0
 Energy Change          TolE            ....  1.000e-06 Eh
 1-El. energy change                    ....  1.000e-03 Eh
 Orbital Gradient       TolG            ....  5.000e-05
 Orbital Rotation angle TolX            ....  5.000e-05
 DIIS Error             TolErr          ....  1.000e-06


Diagonalization of the overlap matrix:
Smallest eigenvalue                        ... 8.523e-04
Time for diagonalization                   ...    0.007 sec
Threshold for overlap eigenvalues          ... 1.000e-08
Number of eigenvalues below threshold      ... 0
Time for construction of square roots      ...    0.012 sec
Total time needed                          ...    0.019 sec

---------------------
INITIAL GUESS: MOREAD
---------------------
Guess MOs are being read from file: test2-dlpno.gbw
Input Geometry matches current geometry (good)
Input basis set matches current basis set (good)
MOs were renormalized
MOs were reorthogonalized (Cholesky)
                      ------------------
                      INITIAL GUESS DONE (   0.0 sec)
                      ------------------
-------------------
DFT GRID GENERATION
-------------------

General Integration Accuracy     IntAcc      ...  5.340
Radial Grid Type                 RadialGrid  ... Gauss-Chebyshev
Angular Grid (max. acc.)         AngularGrid ... Lebedev-590
Angular grid pruning method      GridPruning ... 3 (G Style)
Weight generation scheme         WeightScheme... Becke
Basis function cutoff            BFCut       ...    1.0000e-10
Integration weight cutoff        WCut        ...    1.0000e-14
Grids for H and He will be reduced by one unit

# of grid points (after initial pruning)     ... 330884 (   0.2 sec)
# of grid points (after weights+screening)   ... 293848 (   1.5 sec)
nearest neighbour list constructed           ...    0.0 sec
Grid point re-assignment to atoms done       ...    0.1 sec
Grid point division into batches done        ...    2.8 sec
Reduced shell lists constructed in    4.9 sec

Total number of grid points                  ...   293848
Total number of batches                      ...     4602
Average number of points per batch           ...       63
Average number of grid points per atom       ...    11302
Average number of shells per batch           ...    53.59 (52.54%)
Average number of basis functions per batch  ...    99.58 (49.30%)
Average number of large shells per batch     ...    38.44 (71.73%)
Average number of large basis fcns per batch ...    70.17 (70.47%)
Maximum spatial batch extension              ...  15.61, 19.77, 17.01 au
Average spatial batch extension              ...   1.59,  1.64,  1.64 au

Time for grid setup =    6.575 sec

--------------
SCF ITERATIONS
--------------
ITER       Energy         Delta-E        Max-DP      RMS-DP      [F,P]     Damp
               ***  Starting incremental Fock matrix formation  ***
  0   -314.6557767314   0.000000000000 0.00000000  0.00000000  0.0249471 0.0000

               *****************************************************
               *                      ERROR                        *
               *        SCF NOT CONVERGED AFTER   1 CYCLES         *
               *****************************************************


----------------
TOTAL SCF ENERGY
----------------

Total Energy       :         -314.65577673 Eh           -8562.21898 eV

Components:
Nuclear Repulsion  :          378.35782890 Eh           10295.63994 eV
Electronic Energy  :         -693.01360563 Eh          -18857.85892 eV
One Electron Energy:        -1172.08876796 Eh          -31894.15684 eV
Two Electron Energy:          479.07516233 Eh           13036.29792 eV

Virial components:
Potential Energy   :         -626.68595945 Eh          -17052.99191 eV
Kinetic Energy     :          312.03018272 Eh            8490.77293 eV
Virial Ratio       :            2.00841455


DFT components:
N(Alpha)           :       32.999986124546 electrons
N(Beta)            :       32.999986124546 electrons
N(Total)           :       65.999972249091 electrons
E(X)               :       -9.499484280852 Eh       
E(C)               :       -1.430864060941 Eh       
E(XC)              :      -10.930348341792 Eh       
DFET-embed. en.    :        0.000000000000 Eh       

---------------
SCF CONVERGENCE
---------------

  Last Energy change         ...    0.0000e+00  Tolerance :   1.0000e-06
  Last MAX-Density change    ...    5.5511e-17  Tolerance :   1.0000e-05
  Last RMS-Density change    ...    1.0231e-18  Tolerance :   1.0000e-06
  Last DIIS Error            ...    2.4947e-02  Tolerance :   1.0000e-06

             **** DENSITY FILE WAS UPDATED (test2-dlpno_job2.scfp) ****
             **** ENERGY FILE WAS UPDATED (test2-dlpno_job2.en.tmp) ****

     --------------------------------------------------------------------
                                      WARNING
     The wavefunction IS NOT YET CONVERGED! It shows however signs of
     convergence. Therefore the wavefunction will be stored and can be
     used as input for another calculation. 
     DO NOT USE THIS WAVEFUNCTION  FOR ANYHTING ELSE. It is NOT RELIABLE
     --------------------------------------------------------------------

             **** DENSITY FILE WAS UPDATED (test2-dlpno_job2.scfp) ****
----------------
ORBITAL ENERGIES
----------------

  NO   OCC          E(Eh)            E(eV) 
   0   2.0000     -10.168745      -276.7056 
   1   2.0000     -10.168743      -276.7056 
   2   2.0000     -10.166422      -276.6424 
   3   2.0000     -10.166418      -276.6423 
   4   2.0000     -10.166095      -276.6335 
   5   2.0000     -10.166050      -276.6323 
   6   2.0000     -10.163580      -276.5651 
   7   2.0000     -10.163579      -276.5651 
   8   2.0000      -0.804083       -21.8802 
   9   2.0000      -0.780103       -21.2277 
  10   2.0000      -0.741404       -20.1746 
  11   2.0000      -0.690980       -18.8025 
  12   2.0000      -0.634047       -17.2533 
  13   2.0000      -0.585752       -15.9391 
  14   2.0000      -0.576933       -15.6992 
  15   2.0000      -0.569906       -15.5079 
  16   2.0000      -0.490724       -13.3533 
  17   2.0000      -0.468860       -12.7583 
  18   2.0000      -0.435903       -11.8615 
  19   2.0000      -0.435282       -11.8446 
  20   2.0000      -0.418664       -11.3924 
  21   2.0000      -0.404220       -10.9994 
  22   2.0000      -0.397967       -10.8292 
  23   2.0000      -0.383557       -10.4371 
  24   2.0000      -0.363255        -9.8847 
  25   2.0000      -0.351862        -9.5746 
  26   2.0000      -0.341325        -9.2879 
  27   2.0000      -0.340340        -9.2611 
  28   2.0000      -0.333102        -9.0642 
  29   2.0000      -0.332166        -9.0387 
  30   2.0000      -0.331930        -9.0323 
  31   2.0000      -0.326834        -8.8936 
  32   2.0000      -0.281574        -7.6620 
  33   0.0000       0.055867         1.5202 
  34   0.0000       0.065445         1.7808 
  35   0.0000       0.082223         2.2374 
  36   0.0000       0.084470         2.2986 
  37   0.0000       0.089461         2.4344 
  38   0.0000       0.111306         3.0288 
  39   0.0000       0.114469         3.1149 
  40   0.0000       0.115060         3.1309 
  41   0.0000       0.145157         3.9499 
  42   0.0000       0.151255         4.1159 
  43   0.0000       0.151631         4.1261 
  44   0.0000       0.158422         4.3109 
  45   0.0000       0.163205         4.4410 
  46   0.0000       0.171410         4.6643 
  47   0.0000       0.175976         4.7885 
  48   0.0000       0.177067         4.8182 
  49   0.0000       0.205781         5.5996 
  50   0.0000       0.206485         5.6187 
  51   0.0000       0.208168         5.6645 
  52   0.0000       0.210776         5.7355 
  53   0.0000       0.232970         6.3394 
  54   0.0000       0.237358         6.4588 
  55   0.0000       0.258128         7.0240 
  56   0.0000       0.288969         7.8632 
  57   0.0000       0.291121         7.9218 
  58   0.0000       0.386200        10.5090 
  59   0.0000       0.421534        11.4705 
  60   0.0000       0.432198        11.7607 
  61   0.0000       0.434476        11.8227 
  62   0.0000       0.435501        11.8506 
  63   0.0000       0.438262        11.9257 
  64   0.0000       0.453180        12.3316 
  65   0.0000       0.455235        12.3876 
  66   0.0000       0.493236        13.4216 
  67   0.0000       0.513955        13.9854 
  68   0.0000       0.517917        14.0932 
  69   0.0000       0.526019        14.3137 
  70   0.0000       0.580071        15.7845 
  71   0.0000       0.627886        17.0857 
  72   0.0000       0.633517        17.2389 
  73   0.0000       0.650949        17.7132 
  74   0.0000       0.655153        17.8276 
  75   0.0000       0.659578        17.9480 
  76   0.0000       0.666161        18.1272 
  77   0.0000       0.670718        18.2512 
  78   0.0000       0.674646        18.3580 
  79   0.0000       0.674795        18.3621 
  80   0.0000       0.682579        18.5739 
  81   0.0000       0.683732        18.6053 
  82   0.0000       0.694209        18.8904 
  83   0.0000       0.699427        19.0324 
  84   0.0000       0.703214        19.1354 
  85   0.0000       0.704431        19.1685 
  86   0.0000       0.710134        19.3237 
  87   0.0000       0.712387        19.3850 
  88   0.0000       0.716220        19.4893 
  89   0.0000       0.717579        19.5263 
  90   0.0000       0.722885        19.6707 
  91   0.0000       0.732601        19.9351 
  92   0.0000       0.747229        20.3331 
  93   0.0000       0.748588        20.3701 
  94   0.0000       0.751084        20.4380 
  95   0.0000       0.756440        20.5838 
  96   0.0000       0.767013        20.8715 
  97   0.0000       0.789251        21.4766 
  98   0.0000       0.855312        23.2742 
  99   0.0000       0.932899        25.3855 
 100   0.0000       1.006951        27.4005 
 101   0.0000       1.020744        27.7759 
 102   0.0000       1.023865        27.8608 
 103   0.0000       1.040801        28.3216 
 104   0.0000       1.044470        28.4215 
 105   0.0000       1.049490        28.5581 
 106   0.0000       1.056683        28.7538 
 107   0.0000       1.072017        29.1711 
 108   0.0000       1.130598        30.7651 
 109   0.0000       1.199031        32.6273 
 110   0.0000       1.266677        34.4680 
 111   0.0000       1.306349        35.5476 
 112   0.0000       1.338598        36.4251 
 113   0.0000       1.354388        36.8548 
 114   0.0000       1.366016        37.1712 
 115   0.0000       1.374711        37.4078 
 116   0.0000       1.395191        37.9651 
 117   0.0000       1.396185        37.9921 
 118   0.0000       1.397004        38.0144 
 119   0.0000       1.411310        38.4037 
 120   0.0000       1.522890        41.4400 
 121   0.0000       1.552121        42.2354 
[...]
      py      :     0.038019
 10 C s       :     2.827598  s :     2.827598
      pz      :     1.035106  p :     3.103028
      px      :     1.016230
      py      :     1.051692
      dz2     :     0.021411  d :     0.090678
      dxz     :     0.015440
      dyz     :     0.016568
      dx2y2   :     0.023228
      dxy     :     0.014031
 11 H s       :     0.918848  s :     0.918848
      pz      :     0.032612  p :     0.069955
      px      :     0.017826
      py      :     0.019517
 12 H s       :     0.918850  s :     0.918850
      pz      :     0.014151  p :     0.069955
      px      :     0.017768
      py      :     0.038036
 13 C s       :     2.827598  s :     2.827598
      pz      :     1.035105  p :     3.103028
      px      :     1.016230
      py      :     1.051693
      dz2     :     0.021411  d :     0.090678
      dxz     :     0.015440
      dyz     :     0.016568
      dx2y2   :     0.023228
      dxy     :     0.014031
 14 H s       :     0.918848  s :     0.918848
      pz      :     0.032612  p :     0.069955
      px      :     0.017825
      py      :     0.019517
 15 H s       :     0.918850  s :     0.918850
      pz      :     0.014151  p :     0.069955
      px      :     0.017768
      py      :     0.038036
 16 C s       :     2.828958  s :     2.828958
      pz      :     1.035635  p :     3.102944
      px      :     1.015479
      py      :     1.051829
      dz2     :     0.021467  d :     0.090646
      dxz     :     0.015310
      dyz     :     0.016518
      dx2y2   :     0.023372
      dxy     :     0.013978
 17 H s       :     0.918891  s :     0.918891
      pz      :     0.032602  p :     0.069950
      px      :     0.017796
      py      :     0.019553
 18 H s       :     0.918892  s :     0.918892
      pz      :     0.014192  p :     0.069950
      px      :     0.017737
      py      :     0.038021
 19 C s       :     2.827759  s :     2.827759
      pz      :     1.034380  p :     3.107314
      px      :     1.020889
      py      :     1.052045
      dz2     :     0.021488  d :     0.090632
      dxz     :     0.015311
      dyz     :     0.016651
      dx2y2   :     0.023226
      dxy     :     0.013955
 20 H s       :     0.918411  s :     0.918411
      pz      :     0.032290  p :     0.069712
      px      :     0.017828
      py      :     0.019594
 21 H s       :     0.918412  s :     0.918412
      pz      :     0.014109  p :     0.069712
      px      :     0.017770
      py      :     0.037832
 22 C s       :     2.820097  s :     2.820097
      pz      :     1.038486  p :     3.149906
      px      :     1.055507
      py      :     1.055913
      dz2     :     0.020222  d :     0.075520
      dxz     :     0.009440
      dyz     :     0.015423
      dx2y2   :     0.022531
      dxy     :     0.007904
 23 H s       :     0.915645  s :     0.915645
      pz      :     0.032467  p :     0.068802
      px      :     0.016694
      py      :     0.019640
 24 H s       :     0.915247  s :     0.915247
      pz      :     0.014806  p :     0.069243
      px      :     0.040504
      py      :     0.013933
 25 H s       :     0.915645  s :     0.915645
      pz      :     0.014364  p :     0.068802
      px      :     0.016638
      py      :     0.037799


                      *****************************
                      * MAYER POPULATION ANALYSIS *
                      *****************************

  NA   - Mulliken gross atomic population
  ZA   - Total nuclear charge
  QA   - Mulliken gross atomic charge
  VA   - Mayer's total valence
  BVA  - Mayer's bonded valence
  FA   - Mayer's free valence

  ATOM       NA         ZA         QA         VA         BVA        FA
  0 C      5.9372     6.0000     0.0628     4.0139     4.0139    -0.0000
  1 H      1.0053     1.0000    -0.0053     0.9917     0.9917    -0.0000
  2 H      1.0053     1.0000    -0.0053     0.9916     0.9916    -0.0000
  3 H      1.0051     1.0000    -0.0051     0.9831     0.9831    -0.0000
  4 C      5.9959     6.0000     0.0041     4.1223     4.1223    -0.0000
  5 H      1.0138     1.0000    -0.0138     0.9780     0.9780    -0.0000
  6 H      1.0138     1.0000    -0.0138     0.9780     0.9780     0.0000
  7 C      5.9839     6.0000     0.0161     4.0919     4.0919    -0.0000
  8 H      1.0196     1.0000    -0.0196     0.9833     0.9833     0.0000
  9 H      1.0196     1.0000    -0.0196     0.9833     0.9833     0.0000
 10 C      5.9575     6.0000     0.0425     4.0776     4.0776     0.0000
 11 H      1.0215     1.0000    -0.0215     0.9841     0.9841     0.0000
 12 H      1.0215     1.0000    -0.0215     0.9841     0.9841    -0.0000
 13 C      5.9575     6.0000     0.0425     4.0776     4.0776     0.0000
 14 H      1.0215     1.0000    -0.0215     0.9841     0.9841     0.0000
 15 H      1.0215     1.0000    -0.0215     0.9841     0.9841    -0.0000
 16 C      5.9839     6.0000     0.0161     4.0919     4.0919     0.0000
 17 H      1.0196     1.0000    -0.0196     0.9833     0.9833     0.0000
 18 H      1.0196     1.0000    -0.0196     0.9833     0.9833     0.0000
 19 C      5.9959     6.0000     0.0041     4.1223     4.1223     0.0000
 20 H      1.0138     1.0000    -0.0138     0.9780     0.9780    -0.0000
 21 H      1.0138     1.0000    -0.0138     0.9780     0.9780     0.0000
 22 C      5.9372     6.0000     0.0628     4.0139     4.0139     0.0000
 23 H      1.0053     1.0000    -0.0053     0.9917     0.9917     0.0000
 24 H      1.0051     1.0000    -0.0051     0.9831     0.9831    -0.0000
 25 H      1.0053     1.0000    -0.0053     0.9917     0.9917     0.0000

  Mayer bond orders larger than 0.100000
B(  0-C ,  1-H ) :   0.9694 B(  0-C ,  2-H ) :   0.9694 B(  0-C ,  3-H ) :   0.9631 
B(  0-C ,  4-C ) :   1.1051 B(  4-C ,  5-H ) :   0.9455 B(  4-C ,  6-H ) :   0.9455 
B(  4-C ,  7-C ) :   1.0909 B(  7-C ,  8-H ) :   0.9425 B(  7-C ,  9-H ) :   0.9425 
B(  7-C , 10-C ) :   1.0884 B( 10-C , 11-H ) :   0.9379 B( 10-C , 12-H ) :   0.9379 
B( 10-C , 13-C ) :   1.0894 B( 13-C , 14-H ) :   0.9379 B( 13-C , 15-H ) :   0.9379 
B( 13-C , 16-C ) :   1.0884 B( 16-C , 17-H ) :   0.9425 B( 16-C , 18-H ) :   0.9425 
B( 16-C , 19-C ) :   1.0909 B( 19-C , 20-H ) :   0.9455 B( 19-C , 21-H ) :   0.9455 
B( 19-C , 22-C ) :   1.1051 B( 22-C , 23-H ) :   0.9694 B( 22-C , 24-H ) :   0.9631 
B( 22-C , 25-H ) :   0.9694 

-------
TIMINGS
-------

Total SCF time: 0 days 0 hours 0 min 15 sec 

Total time                  ....      15.273 sec
Sum of individual times     ....      15.038 sec  ( 98.5%)

Fock matrix formation       ....       8.444 sec  ( 55.3%)
  XC integration            ....       3.203 sec  ( 37.9% of F)
    Basis function eval.    ....       1.310 sec  ( 40.9% of XC)
    Density eval.           ....       0.667 sec  ( 20.8% of XC)
    XC-Functional eval.     ....       0.227 sec  (  7.1% of XC)
    XC-Potential eval.      ....       0.883 sec  ( 27.6% of XC)
Diagonalization             ....       0.000 sec  (  0.0%)
Density matrix formation    ....       0.000 sec  (  0.0%)
Population analysis         ....       0.008 sec  (  0.1%)
Initial guess               ....       0.008 sec  (  0.1%)
Orbital Transformation      ....       0.000 sec  (  0.0%)
Orbital Orthonormalization  ....       0.005 sec  (  0.0%)
DIIS solution               ....       0.002 sec  (  0.0%)
SOSCF solution              ....       0.000 sec  (  0.0%)
Grid generation             ....       6.575 sec  ( 43.1%)

------------------------------------------------------------------------------
                                ORCA  MP2 
------------------------------------------------------------------------------



------------------------------------------------------------------------------
                           ORCA ORBITAL LOCALIZATION
------------------------------------------------------------------------------

Input orbitals are from                  ... test2-dlpno_job2.gbw
Output orbitals are to                   ... test2-dlpno_job2.loc
Max. number of iterations                ... 128
Localizations seeded randomly            ... off
Convergence tolerance                    ... 1.000e-06
Treshold for strong local MOs            ... 9.500e-01
Treshold for bond MOs                    ... 8.500e-01
Operator                                 ... 0
Orbital range for localization           ... 0 to 7
Localization criterion                   ... FOSTER-BOYS (AUGMENTED HESSIAN)
Doing the dipole integrals     ... o.k.
Initial value of the localization sum :   487.284855
ITERATION   0 : L=  487.2848682409 DL=  1.36e-05 (AVERGE_DL)=    0.0006959444 
ITERATION   1 : L=  487.2848682409 DL=  0.00e+00 (AVERGE_DL)=    0.0000000000 
LOCALIZATION SUM CONVERGED

------------------------------------------------------
AUGMENTED HESSIAN OPTIMIZATION OF FOSTER-BOYS ORBITALS
------------------------------------------------------

Spin operator:           0
Orbital window:          0 to 7
Number of iterations:    128
Gradient tolerance:      1.000e-06
Number of pairs:         28
Davidson threshold:      2000
Diagonalization method:  LAPACK
Iter:    0   L: 487.2848682409   Grad. norm: 6.568357e-04
   *** Likely close to a maximum now. ***
       Augmented Hessian eigenvalues:  6.66e-10 -3.39e+01 -3.39e+01 -3.39e+01 ... 
Iter:    1   L: 487.2848682412   Grad. norm: 9.137108e-16
LOCALIZATION HAS CONVERGED.

Eigenvalues of the Hessian:
  0 -3.388e+01
  1 -3.388e+01
  2 -3.388e+01
  3 -3.388e+01
  4 -3.388e+01
  5 -3.388e+01
  6 -3.388e+01
  7 -9.034e+01
  8 -9.034e+01
  9 -9.034e+01
    ...


------------------------------------------------------------------------------- 
                    LOCALIZED MOLECULAR ORBITAL COMPOSITIONS                   
------------------------------------------------------------------------------- 

The Mulliken populations for each LMO on each atom are computed
The LMO`s will be ordered according to atom index and type
  (A) Strongly localized MO`s have populations of >=0.950 on one atom
  (B) Two center bond orbitals have populations of >=0.850 on two atoms
  (C) Other MO`s are considered to be `delocalized`

FOUND  -   8 strongly local MO`s
       -   0 two center bond MO`s
       -   0 significantly delocalized MO`s

Rather strongly localized orbitals:
MO   7:  22C  -   0.997980
MO   6:  19C  -   0.996000
MO   5:  16C  -   0.996110
MO   4:  13C  -   0.996046
MO   3:  10C  -   0.996046
MO   2:   7C  -   0.996110
MO   1:   4C  -   0.996000
MO   0:   0C  -   0.997980
Localized MO's were stored in: test2-dlpno_job2.loc
------------------------------------------------------------------------------
                           ORCA ORBITAL LOCALIZATION
------------------------------------------------------------------------------

Input orbitals are from                  ... test2-dlpno_job2.loc
Output orbitals are to                   ... test2-dlpno_job2.loc
Max. number of iterations                ... 128
Localizations seeded randomly            ... off
Convergence tolerance                    ... 1.000e-06
Treshold for strong local MOs            ... 9.500e-01
Treshold for bond MOs                    ... 8.500e-01
Operator                                 ... 0
Orbital range for localization           ... 8 to 32
Localization criterion                   ... FOSTER-BOYS (AUGMENTED HESSIAN)
Doing the dipole integrals     ... o.k.
Initial value of the localization sum :  1554.938081
ITERATION   0 : L= 1635.0363273518 DL=  8.01e+01 (AVERGE_DL)=    0.5167147710 
ITERATION   1 : L= 1638.8268165001 DL=  3.79e+00 (AVERGE_DL)=    0.1124053550 
ITERATION   2 : L= 1638.8388330108 DL=  1.20e-02 (AVERGE_DL)=    0.0063289048 
ITERATION   3 : L= 1638.8388455952 DL=  1.26e-05 (AVERGE_DL)=    0.0002048120 
ITERATION   4 : L= 1638.8388456127 DL=  1.76e-08 (AVERGE_DL)=    0.0000076486 
LOCALIZATION SUM CONVERGED

------------------------------------------------------
AUGMENTED HESSIAN OPTIMIZATION OF FOSTER-BOYS ORBITALS
------------------------------------------------------

Spin operator:           0
Orbital window:          8 to 32
Number of iterations:    128
Gradient tolerance:      1.000e-06
Number of pairs:         300
Davidson threshold:      2000
Diagonalization method:  LAPACK
Iter:    0   L: 1638.8388456127   Grad. norm: 3.190262e-03
   *** Likely close to a maximum now. ***
       Augmented Hessian eigenvalues:  1.71e-08 -1.68e+01 -1.68e+01 -1.73e+01 ... 
Iter:    1   L: 1638.8388456213   Grad. norm: 2.964023e-10
LOCALIZATION HAS CONVERGED.

Eigenvalues of the Hessian:
  0 -1.679e+01
  1 -1.679e+01
  2 -1.729e+01
  3 -1.729e+01
  4 -1.730e+01
  5 -1.730e+01
  6 -1.736e+01
  7 -1.737e+01
  8 -1.740e+01
  9 -1.746e+01
    ...


------------------------------------------------------------------------------- 
                    LOCALIZED MOLECULAR ORBITAL COMPOSITIONS                   
------------------------------------------------------------------------------- 

The Mulliken populations for each LMO on each atom are computed
The LMO`s will be ordered according to atom index and type
  (A) Strongly localized MO`s have populations of >=0.950 on one atom
  (B) Two center bond orbitals have populations of >=0.850 on two atoms
  (C) Other MO`s are considered to be `delocalized`

FOUND  -   0 strongly local MO`s
       -  25 two center bond MO`s
       -   0 significantly delocalized MO`s

Bond-like localized orbitals:
MO  32:  25H  -   0.516203  and  22C  -   0.486334
MO  31:  24H  -   0.519636  and  22C  -   0.479043
MO  30:  23H  -   0.516204  and  22C  -   0.486333
MO  29:  22C  -   0.522837  and  19C  -   0.512980
MO  28:  21H  -   0.525782  and  19C  -   0.470196
MO  27:  20H  -   0.525781  and  19C  -   0.470197
MO  26:  19C  -   0.524859  and  16C  -   0.516937
MO  25:  18H  -   0.526922  and  16C  -   0.469267
MO  24:  17H  -   0.526921  and  16C  -   0.469267
MO  23:  16C  -   0.522419  and  13C  -   0.516987
MO  22:  15H  -   0.527530  and  13C  -   0.465674
MO  21:  14H  -   0.527529  and  13C  -   0.465674
MO  20:  13C  -   0.519693  and  10C  -   0.519693
MO  19:  12H  -   0.527529  and  10C  -   0.465675
MO  18:  11H  -   0.527530  and  10C  -   0.465672
MO  17:  10C  -   0.516986  and   7C  -   0.522419
MO  16:   9H  -   0.526919  and   7C  -   0.469253
MO  15:   8H  -   0.526924  and   7C  -   0.469281
MO  14:   7C  -   0.516937  and   4C  -   0.524859
MO  13:   6H  -   0.525782  and   4C  -   0.470190
MO  12:   5H  -   0.525781  and   4C  -   0.470202
MO  11:   4C  -   0.512980  and   0C  -   0.522837
MO  10:   3H  -   0.519636  and   0C  -   0.479043
MO   9:   2H  -   0.516203  and   0C  -   0.486331
MO   8:   1H  -   0.516204  and   0C  -   0.486336
Localized MO's were stored in: test2-dlpno_job2.loc


Calculating differential overlap integrals ... ok
Threshold for domain construction in prescreening: TCutDOPre = 3.0e-02

--------------------------
ELECTRON PAIR PRESCREENING
--------------------------

Dipole-based pair screening          .... used

   TCutDOij = 1.000000e-05
   TCutPre  = 1.000000e-06
   .... Finished loop over pairs

                  =====================================
                     4 OF  561 PAIRS WERE SKIPPED 
                  =====================================

Total time spent in the prescreening                  ...     0.001 sec
sum of pair energies estimated for screened out pairs ...      -0.000000000036 Eh

---------------------------
MAP CONSTRUCTION THRESHOLDS
---------------------------
    TCutMKN     ...     1.0e-03
    TCutDO      ...     5.0e-03
    TCutC(MO)   ...     1.0e-03
    TCutC(PAO)  ...     1.0e-03

--------------------------------
LOCAL RI TRANSFORMATION (IAVPAO)
--------------------------------

Orbital window:       0 to 32
Number of PAOs:     202
Basis functions:    202 (102 shells)
Aux. functions:     636 (236 shells)

Processing maps (0.0 sec)
Average map sizes:
   Aux shells -> MOs              33.0
   Aux shells -> PAOs            202.0
   MOs        -> AO shells        83.3
   PAOs       -> AO shells       100.2

Calculating integrals (0.9 sec, 32.353 MB)
Sorting integrals (0.1 sec, 32.346 MB)
Total time for the integral transformation: 1.0 sec

----------------------------
Local MP2 Energy Calculation
----------------------------
Truncation parameters:
    PAOOverlapThresh    =        1.000e-08
    TCutPNO             =        1.000e-09
    TCutPNO (core)      =        1.000e-11

Spin component scaling                      .... not used
MP2 energy scaling factor                   .... 0.321

Formation of semicanonical amplitudes.
 10% done.
 20% done.
 30% done.
 40% done.
 50% done.
 60% done.
 70% done.
 80% done.
 90% done.
100% done.

Finished the LMP2 guess in 10.9 sec.

Average number of PAOs per pair        173.9
Average number of PNOs per pair         39.5
Average number of AUX  per pair         378.6

Semicanonical MP2 energy:                   -0.520346498031 Eh
Semicanonical MP2 energy in PNO basis:      -0.520343676797 Eh

Initial amplitudes guess done. Entering DLPNO-MP2 iteration loop:
   Max. no of iterations          ...  100
   Energy convergence tolerance   ...    1.0e-06 Eh
   Residual convergence tolerance ...    5.0e-06
   Fock matrix cutoff             ...    1.0e-05 Eh
   Max # vectors in DIIS          ...  7
   Start iteration of DIIS        ...  0
   Levelshift                     ...  2.000e-01 Eh
   Damping before turning on DIIS ...  5.000e-01
   Damping after turning on DIIS  ...  0.000e+00

                           *** Turning on DIIS ***
Iter=   0:  ECORR= -0.530250607629  DE=   9.9e-03 RMAX=   3.3e-03
Iter=   1:  ECORR= -0.535912708163  DE=   5.7e-03 RMAX=   2.0e-03
Iter=   2:  ECORR= -0.537014570614  DE=   1.1e-03 RMAX=   3.2e-04
Iter=   3:  ECORR= -0.537100823124  DE=   8.6e-05 RMAX=   1.1e-04
Iter=   4:  ECORR= -0.537100206171  DE=   6.2e-07 RMAX=   1.5e-05
Iter=   5:  ECORR= -0.537098839249  DE=   1.4e-06 RMAX=   4.1e-06
Iter=   6:  ECORR= -0.537098769350  DE=   7.0e-08 RMAX=   5.2e-07 => CONVERGED

Finished the DLPNO-MP2 iterations in 126.5 sec.

LMP2 correlation energy (all non-screened pairs)      ...     -0.537098769350 Eh
Semicanonical PNO correction to energy                ...     -0.000002821234 Eh
Sum of pair energies estimated for screened out pairs ...     -0.000000000036 Eh
                                                         -----------------------
Total:                                                ...     -0.537101590619 Eh

------------------------------------------------------
 DLPNO-MP2 CORRELATION ENERGY:      -0.537101590619 Eh
------------------------------------------------------

TIMINGS FOR DLPNO-MP2:
Localization                             ...        0.295 sec
Differential overlap integrals           ...        8.442 sec
Prescreening                             ...        0.143 sec
Map setup                                ...        0.006 sec
(ia|v) trafo                             ...        0.976 sec
Semicanonical amplitudes                 ...        8.260 sec
PNO construction                         ...        2.595 sec
DLPNO-MP2 iterations                     ...      126.550 sec
                                             ----------------
Total time                                        147.460 sec


---------------------------------------
MP2 TOTAL ENERGY:     -315.192878322 Eh
---------------------------------------

-------------------------   --------------------
FINAL SINGLE POINT ENERGY      -315.192878322013   (Wavefunction not fully converged!)
-------------------------   --------------------



     ------------------------------------------------------------------------------
                                      ERROR
     This wavefunction IS NOT FULLY CONVERGED! 
     You can't use it for properties or numerical calculations !
     Aborting the run ...
     Please restart calculation (with larger maxiter/different convergence flags)
     ------------------------------------------------------------------------------


