
                                 *****************
                                 * O   R   C   A *
                                 *****************

           --- An Ab Initio, DFT and Semiempirical electronic structure package ---

                  #######################################################
                  #                        -***-                        #
                  #          Department of theory and spectroscopy      #
                  #               Directorship: Frank Neese             #
                  #        Max Planck Institute fuer Kohlenforschung    #
                  #                Kaiser Wilhelm Platz 1               #
                  #                 D-45470 Muelheim/Ruhr               #
                  #                      Germany                        #
                  #                                                     #
                  #                  All rights reserved                #
                  #                        -***-                        #
                  #######################################################


                         Program Version 4.2.1 -  RELEASE  -


 With contributions from (in alphabetic order):
   Daniel Aravena         : Magnetic Suceptibility
   Michael Atanasov       : Ab Initio Ligand Field Theory (pilot matlab implementation)
   Alexander A. Auer      : GIAO ZORA, VPT2
   Ute Becker             : Parallelization
   Giovanni Bistoni       : ED, misc. LED, open-shell LED, HFLD
   Martin Brehm           : Molecular dynamics
   Dmytro Bykov           : SCF Hessian
   Vijay G. Chilkuri      : MRCI spin determinant printing, contributions to CSF-ICE
   Dipayan Datta          : RHF DLPNO-CCSD density
   Achintya Kumar Dutta   : EOM-CC, STEOM-CC
   Dmitry Ganyushin       : Spin-Orbit,Spin-Spin,Magnetic field MRCI
   Miquel Garcia          : C-PCM Hessian, Gaussian charge scheme
   Yang Guo               : DLPNO-NEVPT2, CIM, IAO-localization
   Andreas Hansen         : Spin unrestricted coupled pair/coupled cluster methods
   Benjamin Helmich-Paris : CASSCF linear response (MC-RPA)
   Lee Huntington         : MR-EOM, pCC
   Robert Izsak           : Overlap fitted RIJCOSX, COSX-SCS-MP3, EOM
   Christian Kollmar      : KDIIS, OOCD, Brueckner-CCSD(T), CCSD density
   Simone Kossmann        : Meta GGA functionals, TD-DFT gradient, OOMP2, MP2 Hessian
   Martin Krupicka        : AUTO-CI
   Lucas Lang             : DCDCAS
   Dagmar Lenk            : GEPOL surface, SMD
   Dimitrios Liakos       : Extrapolation schemes; Compound Job, initial MDCI parallelization
   Dimitrios Manganas     : Further ROCIS development; embedding schemes
   Dimitrios Pantazis     : SARC Basis sets
   Taras Petrenko         : DFT Hessian,TD-DFT gradient, ASA, ECA, R-Raman, ABS, FL, XAS/XES, NRVS
   Peter Pinski           : DLPNO-MP2, DLPNO-MP2 Gradient
   Christoph Reimann      : Effective Core Potentials
   Marius Retegan         : Local ZFS, SOC
   Christoph Riplinger    : Optimizer, TS searches, QM/MM, DLPNO-CCSD(T), (RO)-DLPNO pert. Triples
   Tobias Risthaus        : Range-separated hybrids, TD-DFT gradient, RPA, STAB
   Michael Roemelt        : Original ROCIS implementation
   Masaaki Saitow         : Open-shell DLPNO-CCSD energy and density
   Barbara Sandhoefer     : DKH picture change effects
   Avijit Sen             : IP-ROCIS
   Kantharuban Sivalingam : CASSCF convergence, NEVPT2, FIC-MRCI
   Bernardo de Souza      : ESD, SOC TD-DFT
   Georgi Stoychev        : AutoAux, RI-MP2 NMR
   Willem Van den Heuvel  : Paramagnetic NMR
   Boris Wezisla          : Elementary symmetry handling
   Frank Wennmohs         : Technical directorship


 We gratefully acknowledge several colleagues who have allowed us to
 interface, adapt or use parts of their codes:
   Stefan Grimme, W. Hujo, H. Kruse,             : VdW corrections, initial TS optimization,
                  C. Bannwarth                     DFT functionals, gCP, sTDA/sTD-DF
   Ed Valeev, F. Pavosevic, A. Kumar             : LibInt (2-el integral package), F12 methods
   Garnet Chan, S. Sharma, J. Yang, R. Olivares  : DMRG
   Ulf Ekstrom                                   : XCFun DFT Library
   Mihaly Kallay                                 : mrcc  (arbitrary order and MRCC methods)
   Andreas Klamt, Michael Diedenhofen            : otool_cosmo (COSMO solvation model)
   Jiri Pittner, Ondrej Demel                    : Mk-CCSD
   Frank Weinhold                                : gennbo (NPA and NBO analysis)
   Christopher J. Cramer and Donald G. Truhlar   : smd solvation model
   Lars Goerigk                                  : TD-DFT with DH, B97 family of functionals
   V. Asgeirsson, H. Jonsson                     : NEB implementation
   FAccTs GmbH                                   : IRC, NEB, NEB-TS, Multilevel, MM, QM/MM, CI optimization
   S Lehtola, MJT Oliveira, MAL Marques          : LibXC Library


 Your calculation uses the libint2 library for the computation of 2-el integrals
 For citations please refer to: http://libint.valeyev.net

 Your ORCA version has been built with support for libXC version: 4.2.3
 For citations please refer to: https://tddft.org/programs/libxc/

 This ORCA versions uses:
   CBLAS   interface :  Fast vector & matrix operations
   LAPACKE interface :  Fast linear algebra routines
   SCALAPACK package :  Parallel linear algebra routines


----- Orbital basis set information -----
Your calculation utilizes the basis: def2-SVP
   F. Weigend and R. Ahlrichs, Phys. Chem. Chem. Phys. 7, 3297 (2005).

================================================================================
                                        WARNINGS
                       Please study these warnings very carefully!
================================================================================


INFO   : the flag for use of LIBINT has been found!



***************************************
The coordinates will be read from file: 
***************************************


----- Orbital basis set information -----
Your calculation utilizes the basis: def2-SVP
   F. Weigend and R. Ahlrichs, Phys. Chem. Chem. Phys. 7, 3297 (2005).

----- AuxC basis set information -----
Your calculation utilizes the auxiliary basis: def2-SVP/C
  H-La, Hf-Rn : A. Hellweg, C. Hattig, S. Hofener and W. Klopper, Theor. Chem. Acc. 117, 587 (2007).
        Ce-Lu : J. Chmela and M. E. Harding, Mol. Phys. (2018).

================================================================================
                                        WARNINGS
                       Please study these warnings very carefully!
================================================================================


WARNING: Direct SCF is incompatible with ReadInts=true
  ===> : ReadInts is disabled

INFO   : the flag for use of LIBINT has been found!

================================================================================
                                       INPUT FILE
================================================================================
NAME = test2-cim.inp
|  1> ! RKS b3lyp_g def2-svp grid6 nofinalgrid 
|  2> ! xyzfile
|  3> %maxcore 1000
|  4> 
|  5> *xyz 0 1
|  6>  C                 -4.82378852   -1.56387663    0.00000000
|  7>  H                 -4.46713410   -2.57268663    0.00000000
|  8>  H                 -4.46711568   -1.05947844   -0.87365150
|  9>  H                 -5.89378852   -1.56386344    0.00000000
| 10>  C                 -4.31044630   -0.83792036    1.25740497
| 11>  H                 -4.66550265    0.17145273    1.25642745
| 12>  H                 -4.66871541   -1.34118879    2.13105486
| 13>  C                 -2.77044891   -0.84037671    1.25881364
| 14>  H                 -2.41218042   -0.33743483    0.38497547
| 15>  H                 -2.41539267   -1.84974940    1.26016738
| 16>  C                 -2.25710642   -0.11395139    2.51594759
| 17>  H                 -2.61544323   -0.61684569    3.38978513
| 18>  H                 -2.61209480    0.89544512    2.51455266
| 19>  C                 -0.71710925   -0.11651080    2.51741591
| 20>  H                 -0.35877330    0.38637575    1.64357355
| 21>  H                 -0.36212065   -1.12590722    2.51881957
| 22>  C                 -0.20376674    0.60992522    3.77454365
| 23>  H                 -0.56210498    0.10703940    4.64838548
| 24>  H                 -0.55875366    1.61932223    3.77313924
| 25>  C                  1.33623043    0.60736361    3.77601325
| 26>  H                  1.69456782    1.11025067    2.90217178
| 27>  H                  1.69121758   -0.40203332    3.77741602
| 28>  C                  1.84957293    1.33379742    5.03314227
| 29>  H                  1.49123612    0.83090904    5.90698322
| 30>  H                  2.91957097    1.33201912    5.03416247
| 31>  H                  1.49458457    2.34319392    5.03174052
| 32> *
| 33> 
| 34> $new_job
| 35> ! RKS def2-svp grid6 nofinalgrid
| 36> ! readints
| 37> !cim def2-svp/c 
| 38> #%scf maxiter 1 end
| 39> %maxcore 1000
| 40> %method
| 41>  Functional b3lyp_g
| 42>  ACM 0.8033, 0.2107, 0.6789
| 43>  ScalLDAC = 0.6789
| 44>  ScalMP2C = 0.3211
| 45> end
| 46> %mp2
| 47>  ri true
| 48> end
| 49> %cim
| 50>  cimthresh 0.003
| 51> end
| 52> 
| 53> *xyzfile 0 1
| 54> 
| 55> 
| 56> 
| 57>                          ****END OF INPUT****
================================================================================


                 $$$$$$$$$$$$$$$$$$$$$$$$$$$$$$$$$$$$$$$$$$$$$$ 
                 $ THERE ARE  2 JOBS TO BE PROCESSED THIS RUN $
                 $$$$$$$$$$$$$$$$$$$$$$$$$$$$$$$$$$$$$$$$$$$$$$ 




                 $$$$$$$$$$$$$$$$  JOB NUMBER  1 $$$$$$$$$$$$$$


                       ****************************
                       * Single Point Calculation *
                       ****************************

---------------------------------
CARTESIAN COORDINATES (ANGSTROEM)
---------------------------------
  C     -4.823789   -1.563877    0.000000
  H     -4.467134   -2.572687    0.000000
  H     -4.467116   -1.059478   -0.873651
  H     -5.893789   -1.563863    0.000000
  C     -4.310446   -0.837920    1.257405
  H     -4.665503    0.171453    1.256427
  H     -4.668715   -1.341189    2.131055
  C     -2.770449   -0.840377    1.258814
  H     -2.412180   -0.337435    0.384975
  H     -2.415393   -1.849749    1.260167
  C     -2.257106   -0.113951    2.515948
  H     -2.615443   -0.616846    3.389785
  H     -2.612095    0.895445    2.514553
  C     -0.717109   -0.116511    2.517416
  H     -0.358773    0.386376    1.643574
  H     -0.362121   -1.125907    2.518820
  C     -0.203767    0.609925    3.774544
  H     -0.562105    0.107039    4.648385
  H     -0.558754    1.619322    3.773139
  C      1.336230    0.607364    3.776013
  H      1.694568    1.110251    2.902172
  H      1.691218   -0.402033    3.777416
  C      1.849573    1.333797    5.033142
  H      1.491236    0.830909    5.906983
  H      2.919571    1.332019    5.034162
  H      1.494585    2.343194    5.031741

----------------------------
CARTESIAN COORDINATES (A.U.)
----------------------------
  NO LB      ZA    FRAG     MASS         X           Y           Z
   0 C     6.0000    0    12.011   -9.115639   -2.955299    0.000000
   1 H     1.0000    0     1.008   -8.441660   -4.861673    0.000000
   2 H     1.0000    0     1.008   -8.441625   -2.002124   -1.650962
   3 H     1.0000    0     1.008  -11.137646   -2.955274    0.000000
   4 C     6.0000    0    12.011   -8.145563   -1.583440    2.376151
   5 H     1.0000    0     1.008   -8.816522    0.323999    2.374304
   6 H     1.0000    0     1.008   -8.822594   -2.534480    4.027110
   7 C     6.0000    0    12.011   -5.235390   -1.588082    2.378813
   8 H     1.0000    0     1.008   -4.558360   -0.637659    0.727498
   9 H     1.0000    0     1.008   -4.564431   -3.495520    2.381371
  10 C     6.0000    0    12.011   -4.265313   -0.215337    4.754452
  11 H     1.0000    0     1.008   -4.942471   -1.165669    6.405766
  12 H     1.0000    0     1.008   -4.936144    1.692146    4.751816
  13 C     6.0000    0    12.011   -1.355140   -0.220174    4.757227
  14 H     1.0000    0     1.008   -0.677983    0.730144    3.105904
  15 H     1.0000    0     1.008   -0.684309   -2.127656    4.759879
  16 C     6.0000    0    12.011   -0.385063    1.152592    7.132854
  17 H     1.0000    0     1.008   -1.062224    0.202275    8.784176
  18 H     1.0000    0     1.008   -1.055891    3.060076    7.130200
  19 C     6.0000    0    12.011    2.525110    1.147751    7.135631
  20 H     1.0000    0     1.008    3.202269    2.098070    5.484310
  21 H     1.0000    0     1.008    3.195938   -0.759733    7.138282
  22 C     6.0000    0    12.011    3.495186    2.520512    9.511260
  23 H     1.0000    0     1.008    2.818028    1.570191   11.162581
  24 H     1.0000    0     1.008    5.517190    2.517151    9.513188
  25 H     1.0000    0     1.008    2.824356    4.427995    9.508612

--------------------------------
INTERNAL COORDINATES (ANGSTROEM)
--------------------------------
 C      0   0   0     0.000000000000     0.00000000     0.00000000
 H      1   0   0     1.069999995984     0.00000000     0.00000000
 H      1   2   0     1.069999996412   109.47120272     0.00000000
 H      1   2   3     1.070000000081   109.47123145   119.99999264
 C      1   2   3     1.539999999795   109.47120251   239.99998515
 H      5   1   2     1.070000000952   109.47120230   179.88890033
 H      5   1   2     1.069999999118   109.47120275   299.88891486
 C      5   1   2     1.539999993251   109.47123127    59.88890783
 H      8   5   1     1.069999996698   109.47120316    59.97860807
 H      8   5   1     1.069999996959   109.47123169   299.97861500
 C      8   5   1     1.540000008383   109.47120251   179.97862274
 H     11   8   5     1.069999996583   109.47120246    59.99528586
 H     11   8   5     1.070000004750   109.47123088   299.99529357
 C     11   8   5     1.539999996802   109.47120271   179.99530096
 H     14  11   8     1.070000002506   109.47120253    59.99949653
 H     14  11   8     1.070000004252   109.47123140   299.99950441
 C     14  11   8     1.539999992988   109.47120277   179.99951180
 H     17  14  11     1.069999993487   109.47120289    59.99988436
 H     17  14  11     1.070000004456   109.47123099   299.99989184
 C     17  14  11     1.540000001681   109.47120298   179.99989956
 H     20  17  14     1.069999997607   109.47120229    60.00008529
 H     20  17  14     1.070000003141   109.47123097   300.00009340
 C     20  17  14     1.539999992060   109.47120280   180.00010078
 H     23  20  17     1.069999999083   109.47120286    60.00008478
 H     23  20  17     1.070000004095   109.47120251   180.00009991
 H     23  20  17     1.069999997594   109.47123133   300.00009246

---------------------------
INTERNAL COORDINATES (A.U.)
---------------------------
 C      0   0   0     0.000000000000     0.00000000     0.00000000
 H      1   0   0     2.022006955706     0.00000000     0.00000000
 H      1   2   0     2.022006956515   109.47120272     0.00000000
 H      1   2   3     2.022006963449   109.47123145   119.99999264
 C      1   2   3     2.910178245851   109.47120251   239.99998515
 H      5   1   2     2.022006965094   109.47120230   179.88890033
 H      5   1   2     2.022006961628   109.47120275   299.88891486
 C      5   1   2     2.910178233485   109.47123127    59.88890783
 H      8   5   1     2.022006957056   109.47120316    59.97860807
 H      8   5   1     2.022006957550   109.47123169   299.97861500
 C      8   5   1     2.910178262080   109.47120251   179.97862274
 H     11   8   5     2.022006956838   109.47120246    59.99528586
 H     11   8   5     2.022006972272   109.47123088   299.99529357
 C     11   8   5     2.910178240196   109.47120271   179.99530096
 H     14  11   8     2.022006968032   109.47120253    59.99949653
 H     14  11   8     2.022006971332   109.47123140   299.99950441
 C     14  11   8     2.910178232989   109.47120277   179.99951180
 H     17  14  11     2.022006950987   109.47120289    59.99988436
 H     17  14  11     2.022006971716   109.47123099   299.99989184
 C     17  14  11     2.910178249416   109.47120298   179.99989956
 H     20  17  14     2.022006958774   109.47120229    60.00008529
 H     20  17  14     2.022006969232   109.47123097   300.00009340
 C     20  17  14     2.910178231234   109.47120280   180.00010078
 H     23  20  17     2.022006961562   109.47120286    60.00008478
 H     23  20  17     2.022006971034   109.47120251   180.00009991
 H     23  20  17     2.022006958749   109.47123133   300.00009246

---------------------
BASIS SET INFORMATION
---------------------
There are 2 groups of distinct atoms

 Group   1 Type C   : 7s4p1d contracted to 3s2p1d pattern {511/31/1}
 Group   2 Type H   : 4s1p contracted to 2s1p pattern {31/1}

Atom   0C    basis set group =>   1
Atom   1H    basis set group =>   2
Atom   2H    basis set group =>   2
Atom   3H    basis set group =>   2
Atom   4C    basis set group =>   1
Atom   5H    basis set group =>   2
Atom   6H    basis set group =>   2
Atom   7C    basis set group =>   1
Atom   8H    basis set group =>   2
Atom   9H    basis set group =>   2
Atom  10C    basis set group =>   1
Atom  11H    basis set group =>   2
Atom  12H    basis set group =>   2
Atom  13C    basis set group =>   1
Atom  14H    basis set group =>   2
Atom  15H    basis set group =>   2
Atom  16C    basis set group =>   1
Atom  17H    basis set group =>   2
Atom  18H    basis set group =>   2
Atom  19C    basis set group =>   1
Atom  20H    basis set group =>   2
Atom  21H    basis set group =>   2
Atom  22C    basis set group =>   1
Atom  23H    basis set group =>   2
Atom  24H    basis set group =>   2
Atom  25H    basis set group =>   2

Checking for AutoStart:
The File: test2-cim.gbw exists
Trying to determine its content:
     ... Fine, the file contains calculation information
     ... Fine, the calculation information was read
     ... Fine, the file contains a basis set
     ... Fine, the basis set was read
     ... Fine, the file contains a geometry
     ... Fine, the geometry was read
     ... Fine, the file contains a set of orbitals
     ... Fine, the orbitals can be read
     => possible old guess file was deleted
     => GBW file was renamed to GES file
     => GES file is set as startup file
     => Guess is set to MORead
     ... now leaving AutoStart

------------------------------------------------------------------------------
                           ORCA GTO INTEGRAL CALCULATION
------------------------------------------------------------------------------

                         BASIS SET STATISTICS AND STARTUP INFO

 # of primitive gaussian shells          ...  186
 # of primitive gaussian functions       ...  318
 # of contracted shells                  ...  102
 # of contracted basis functions         ...  202
 Highest angular momentum                ...    2
 Maximum contraction depth               ...    5
 Integral package used                   ... LIBINT
 Integral threshhold            Thresh   ...  1.000e-10
 Primitive cut-off              TCut     ...  1.000e-11


------------------------------ INTEGRAL EVALUATION ----------------------------


 * One electron integrals 
 Pre-screening matrix                    ... done
 Shell pair data                         ... done (   0.001 sec)

-------------------------------------------------------------------------------
                                 ORCA SCF
-------------------------------------------------------------------------------

------------
SCF SETTINGS
------------
Hamiltonian:
 Density Functional     Method          .... DFT(GTOs)
 Exchange Functional    Exchange        .... B88
   X-Alpha parameter    XAlpha          ....  0.666667
   Becke's b parameter  XBeta           ....  0.004200
 Correlation Functional Correlation     .... LYP
 LDA part of GGA corr.  LDAOpt          .... VWN-3
 Gradients option       PostSCFGGA      .... off
 Hybrid DFT is turned on
   Fraction HF Exchange ScalHFX         ....  0.200000
   Scaling of DF-GGA-X  ScalDFX         ....  0.720000
   Scaling of DF-GGA-C  ScalDFC         ....  0.810000
   Scaling of DF-LDA-C  ScalLDAC        ....  1.000000
   Perturbative correction              ....  0.000000
   Density functional embedding theory  .... OFF
   NL short-range parameter             ....  4.800000


General Settings:
 Integral files         IntName         .... test2-cim
 Hartree-Fock type      HFTyp           .... RHF
 Total Charge           Charge          ....    0
 Multiplicity           Mult            ....    1
 Number of Electrons    NEL             ....   66
 Basis Dimension        Dim             ....  202
 Nuclear Repulsion      ENuc            ....    378.3578288967 Eh

Convergence Acceleration:
 DIIS                   CNVDIIS         .... on
   Start iteration      DIISMaxIt       ....    12
   Startup error        DIISStart       ....  0.200000
   # of expansion vecs  DIISMaxEq       ....     5
   Bias factor          DIISBfac        ....   1.050
   Max. coefficient     DIISMaxC        ....  10.000
 Newton-Raphson         CNVNR           .... off
 SOSCF                  CNVSOSCF        .... on
   Start iteration      SOSCFMaxIt      ....   150
   Startup grad/error   SOSCFStart      ....  0.003300
 Level Shifting         CNVShift        .... on
   Level shift para.    LevelShift      ....    0.2500
   Turn off err/grad.   ShiftErr        ....    0.0010
 Zerner damping         CNVZerner       .... off
 Static damping         CNVDamp         .... on
   Fraction old density DampFac         ....    0.7000
   Max. Damping (<1)    DampMax         ....    0.9800
   Min. Damping (>=0)   DampMin         ....    0.0000
   Turn off err/grad.   DampErr         ....    0.1000
 Fernandez-Rico         CNVRico         .... off

SCF Procedure:
 Maximum # iterations   MaxIter         ....   125
 SCF integral mode      SCFMode         .... Direct
   Integral package                     .... LIBINT
 Reset frequency        DirectResetFreq ....    20
 Integral Threshold     Thresh          ....  1.000e-10 Eh
 Primitive CutOff       TCut            ....  1.000e-11 Eh

Convergence Tolerance:
 Convergence Check Mode ConvCheckMode   .... Total+1el-Energy
 Convergence forced     ConvForced      .... 0
 Energy Change          TolE            ....  1.000e-06 Eh
 1-El. energy change                    ....  1.000e-03 Eh
 Orbital Gradient       TolG            ....  5.000e-05
 Orbital Rotation angle TolX            ....  5.000e-05
 DIIS Error             TolErr          ....  1.000e-06


Diagonalization of the overlap matrix:
Smallest eigenvalue                        ... 8.523e-04
Time for diagonalization                   ...    0.006 sec
Threshold for overlap eigenvalues          ... 1.000e-08
Number of eigenvalues below threshold      ... 0
Time for construction of square roots      ...    0.004 sec
Total time needed                          ...    0.011 sec

---------------------
INITIAL GUESS: MOREAD
---------------------
Guess MOs are being read from file: test2-cim.ges
Input Geometry matches current geometry (good)
Input basis set matches current basis set (good)
MOs were renormalized
MOs were reorthogonalized (Cholesky)
                      ------------------
                      INITIAL GUESS DONE (   0.0 sec)
                      ------------------
-------------------
DFT GRID GENERATION
-------------------

General Integration Accuracy     IntAcc      ...  5.340
Radial Grid Type                 RadialGrid  ... Gauss-Chebyshev
Angular Grid (max. acc.)         AngularGrid ... Lebedev-590
Angular grid pruning method      GridPruning ... 3 (G Style)
Weight generation scheme         WeightScheme... Becke
Basis function cutoff            BFCut       ...    1.0000e-10
Integration weight cutoff        WCut        ...    1.0000e-14
Grids for H and He will be reduced by one unit

# of grid points (after initial pruning)     ... 330884 (   0.2 sec)
# of grid points (after weights+screening)   ... 293848 (   1.5 sec)
nearest neighbour list constructed           ...    0.0 sec
Grid point re-assignment to atoms done       ...    0.1 sec
Grid point division into batches done        ...    2.8 sec
Reduced shell lists constructed in    4.9 sec

Total number of grid points                  ...   293848
Total number of batches                      ...     4602
Average number of points per batch           ...       63
Average number of grid points per atom       ...    11302
Average number of shells per batch           ...    53.59 (52.54%)
Average number of basis functions per batch  ...    99.58 (49.30%)
Average number of large shells per batch     ...    38.44 (71.73%)
Average number of large basis fcns per batch ...    70.17 (70.47%)
Maximum spatial batch extension              ...  15.61, 19.77, 17.01 au
Average spatial batch extension              ...   1.59,  1.64,  1.64 au

Time for grid setup =    6.545 sec

--------------
SCF ITERATIONS
--------------
ITER       Energy         Delta-E        Max-DP      RMS-DP      [F,P]     Damp
               ***  Starting incremental Fock matrix formation  ***
                      *** Initiating the SOSCF procedure ***
                      *** Re-Reading the Fockian *** 
                      *** Removing any level shift *** 
ITER      Energy       Delta-E        Grad      Rot      Max-DP    RMS-DP
  0   -315.46482980 -315.4648297984  0.000005  0.000005  0.000014  0.000000
               *** Restarting incremental Fock matrix formation ***
                 **** Energy Check signals convergence ****
              ***Rediagonalizing the Fockian in SOSCF/NRSCF***

               *****************************************************
               *                     SUCCESS                       *
               *           SCF CONVERGED AFTER   1 CYCLES          *
               *****************************************************


----------------
TOTAL SCF ENERGY
----------------

Total Energy       :         -315.46482980 Eh           -8584.23443 eV

Components:
Nuclear Repulsion  :          378.35782890 Eh           10295.63994 eV
Electronic Energy  :         -693.82265870 Eh          -18879.87438 eV
One Electron Energy:        -1172.08862308 Eh          -31894.15290 eV
Two Electron Energy:          478.26596438 Eh           13014.27852 eV

Virial components:
Potential Energy   :         -627.49490905 Eh          -17075.00455 eV
Kinetic Energy     :          312.03007926 Eh            8490.77012 eV
Virial Ratio       :            2.01100775


DFT components:
N(Alpha)           :       32.999986124601 electrons
N(Beta)            :       32.999986124601 electrons
N(Total)           :       65.999972249201 electrons
E(X)               :      -37.980458088539 Eh       
E(C)               :       -2.724949561691 Eh       
E(XC)              :      -40.705407650230 Eh       
DFET-embed. en.    :        0.000000000000 Eh       

---------------
SCF CONVERGENCE
---------------

  Last Energy change         ...   -2.1578e-10  Tolerance :   1.0000e-06
  Last MAX-Density change    ...    1.4807e-05  Tolerance :   1.0000e-05
  Last RMS-Density change    ...    3.8047e-07  Tolerance :   1.0000e-06
  Last Orbital Gradient      ...    3.4256e-06  Tolerance :   5.0000e-05
  Last Orbital Rotation      ...    4.7840e-06  Tolerance :   5.0000e-05

             **** THE GBW FILE WAS UPDATED (test2-cim.gbw) ****
             **** DENSITY FILE WAS UPDATED (test2-cim.scfp) ****
             **** ENERGY FILE WAS UPDATED (test2-cim.en.tmp) ****
             **** THE GBW FILE WAS UPDATED (test2-cim.gbw) ****
             **** DENSITY FILE WAS UPDATED (test2-cim.scfp) ****
----------------
ORBITAL ENERGIES
----------------

  NO   OCC          E(Eh)            E(eV) 
   0   2.0000     -10.168779      -276.7065 
   1   2.0000     -10.168777      -276.7065 
   2   2.0000     -10.166426      -276.6425 
   3   2.0000     -10.166422      -276.6424 
   4   2.0000     -10.166057      -276.6325 
   5   2.0000     -10.166012      -276.6312 
   6   2.0000     -10.163600      -276.5656 
   7   2.0000     -10.163599      -276.5656 
   8   2.0000      -0.804078       -21.8801 
   9   2.0000      -0.780111       -21.2279 
  10   2.0000      -0.741406       -20.1747 
  11   2.0000      -0.690982       -18.8026 
  12   2.0000      -0.634050       -17.2534 
  13   2.0000      -0.585758       -15.9393 
  14   2.0000      -0.576925       -15.6989 
  15   2.0000      -0.569910       -15.5080 
  16   2.0000      -0.490721       -13.3532 
  17   2.0000      -0.468866       -12.7585 
  18   2.0000      -0.435904       -11.8616 
  19   2.0000      -0.435285       -11.8447 
  20   2.0000      -0.418668       -11.3925 
  21   2.0000      -0.404220       -10.9994 
  22   2.0000      -0.397968       -10.8293 
  23   2.0000      -0.383559       -10.4372 
  24   2.0000      -0.363256        -9.8847 
  25   2.0000      -0.351864        -9.5747 
  26   2.0000      -0.341332        -9.2881 
  27   2.0000      -0.340343        -9.2612 
  28   2.0000      -0.333108        -9.0643 
  29   2.0000      -0.332161        -9.0386 
  30   2.0000      -0.331934        -9.0324 
  31   2.0000      -0.326830        -8.8935 
  32   2.0000      -0.281572        -7.6620 
  33   0.0000       0.055868         1.5203 
  34   0.0000       0.065443         1.7808 
  35   0.0000       0.082223         2.2374 
  36   0.0000       0.084472         2.2986 
  37   0.0000       0.089462         2.4344 
  38   0.0000       0.111304         3.0287 
  39   0.0000       0.114466         3.1148 
  40   0.0000       0.115059         3.1309 
  41   0.0000       0.145154         3.9498 
  42   0.0000       0.151254         4.1158 
  43   0.0000       0.151628         4.1260 
  44   0.0000       0.158423         4.3109 
  45   0.0000       0.163202         4.4409 
  46   0.0000       0.171409         4.6643 
  47   0.0000       0.175977         4.7886 
  48   0.0000       0.177066         4.8182 
  49   0.0000       0.205782         5.5996 
  50   0.0000       0.206486         5.6188 
  51   0.0000       0.208167         5.6645 
  52   0.0000       0.210776         5.7355 
  53   0.0000       0.232970         6.3394 
  54   0.0000       0.237354         6.4587 
  55   0.0000       0.258128         7.0240 
  56   0.0000       0.288974         7.8634 
  57   0.0000       0.291118         7.9217 
  58   0.0000       0.386200        10.5090 
  59   0.0000       0.421533        11.4705 
  60   0.0000       0.432197        11.7607 
  61   0.0000       0.434475        11.8227 
  62   0.0000       0.435496        11.8504 
  63   0.0000       0.438262        11.9257 
  64   0.0000       0.453178        12.3316 
  65   0.0000       0.455237        12.3876 
  66   0.0000       0.493237        13.4216 
  67   0.0000       0.513953        13.9854 
  68   0.0000       0.517913        14.0931 
  69   0.0000       0.526015        14.3136 
  70   0.0000       0.580075        15.7847 
  71   0.0000       0.627878        17.0854 
  72   0.0000       0.633514        17.2388 
  73   0.0000       0.650946        17.7131 
  74   0.0000       0.655153        17.8276 
  75   0.0000       0.659574        17.9479 
  76   0.0000       0.666161        18.1272 
  77   0.0000       0.670718        18.2512 
  78   0.0000       0.674647        18.3581 
  79   0.0000       0.674803        18.3623 
  80   0.0000       0.682578        18.5739 
  81   0.0000       0.683727        18.6052 
  82   0.0000       0.694203        18.8902 
  83   0.0000       0.699428        19.0324 
  84   0.0000       0.703211        19.1354 
  85   0.0000       0.704427        19.1684 
  86   0.0000       0.710132        19.3237 
  87   0.0000       0.712380        19.3848 
  88   0.0000       0.716216        19.4892 
  89   0.0000       0.717572        19.5261 
  90   0.0000       0.722886        19.6707 
  91   0.0000       0.732600        19.9351 
  92   0.0000       0.747231        20.3332 
  93   0.0000       0.748588        20.3701 
  94   0.0000       0.751082        20.4380 
  95   0.0000       0.756441        20.5838 
  96   0.0000       0.767013        20.8715 
  97   0.0000       0.789257        21.4768 
  98   0.0000       0.855312        23.2742 
  99   0.0000       0.932900        25.3855 
 100   0.0000       1.006949        27.4005 
 101   0.0000       1.020743        27.7758 
 102   0.0000       1.023870        27.8609 
 103   0.0000       1.040798        28.3215 
 104   0.0000       1.044470        28.4215 
 105   0.0000       1.049490        28.5581 
 106   0.0000       1.056673        28.7535 
 107   0.0000       1.072020        29.1711 
 108   0.0000       1.130598        30.7651 
 109   0.0000       1.199027        32.6272 
 110   0.0000       1.266680        34.4681 
 111   0.0000       1.306349        35.5476 
 112   0.0000       1.338600        36.4252 
 113   0.0000       1.354386        36.8547 
 114   0.0000       1.366012        37.1711 
 115   0.0000       1.374708        37.4077 
 116   0.0000       1.395208        37.9655 
 117   0.0000       1.396186        37.9922 
 118   0.0000       1.397005        38.0144 
 119   0.0000       1.411307        38.4036 
 120   0.0000       1.522889        41.4399 
 121   0.0000       1.552117        42.2353 
 122   0.0000       1.552454        42.2444 
 123   0.0000       1.654039        45.0087 
 124   0.0000       1.700292        46.2673 
 125   0.0000       1.710256        46.5384 
 126   0.0000       1.746573        47.5267 
 127   0.0000       1.752038        47.6754 
 128   0.0000       1.761643        47.9367 
 129   0.0000       1.776357        48.3371 
 130   0.0000       1.776957        48.3535 
 131   0.0000       1.782395        48.5014 
 132   0.0000       1.786356        48.6092 
 133   0.0000       1.797649        48.9165 
 134   0.0000       1.798849        48.9492 
 135   0.0000       1.811675        49.2982 
 136   0.0000       1.816176        49.4207 
 137   0.0000       1.837297        49.9954 
 138   0.0000       1.837962        50.0135 
 139   0.0000       1.838481        50.0276 
 140   0.0000       1.862629        50.6847 
 141   0.0000       1.877394        51.0865 
 142   0.0000       1.881305        51.1929 
 143   0.0000       1.893383        51.5216 
 144   0.0000       1.901667        51.7470 
 145   0.0000       1.902100        51.7588 
 146   0.0000       1.915019        52.1103 
 147   0.0000       1.927779        52.4575 
 148   0.0000       1.946768        52.9743 
 149   0.0000       1.949403        53.0459 
 150   0.0000       1.969421        53.5907 
 151   0.0000       1.969921        53.6043 
 152   0.0000       1.981290        53.9137 
 153   0.0000       2.014432        54.8155 
 154   0.0000       2.036771        55.4234 
 155   0.0000       2.039574        55.4996 
 156   0.0000       2.087797        56.8118 
 157   0.0000       2.097419        57.0737 
 158   0.0000       2.107322        57.3431 
 159   0.0000       2.122522        57.7568 
 160   0.0000       2.185012        59.4572 
 161   0.0000       2.220871        60.4330 
 162   0.0000       2.294812        62.4450 
 163   0.0000       2.312001        62.9127 
 164   0.0000       2.350716        63.9662 
 165   0.0000       2.411311        65.6151 
 166   0.0000       2.414673        65.7066 
 167   0.0000       2.425686        66.0063 
 168   0.0000       2.438777        66.3625 
 169   0.0000       2.438933        66.3667 
 170   0.0000       2.464804        67.0707 
 171   0.0000       2.492395        67.8215 
 172   0.0000       2.502115        68.0860 
 173   0.0000       2.513527        68.3966 
 174   0.0000       2.517908        68.5158 
 175   0.0000       2.582670        70.2780 
 176   0.0000       2.598002        70.6952 
 177   0.0000       2.623430        71.3872 
 178   0.0000       2.652024        72.1652 
 179   0.0000       2.656623        72.2904 
 180   0.0000       2.660872        72.4060 
 181   0.0000       2.682337        72.9901 
 182   0.0000       2.695255        73.3416 
 183   0.0000       2.705479        73.6198 
 184   0.0000       2.825104        76.8750 
 185   0.0000       2.871392        78.1345 
 186   0.0000       2.887514        78.5732 
 187   0.0000       2.900436        78.9249 
 188   0.0000       2.904435        79.0337 
 189   0.0000       2.921254        79.4914 
 190   0.0000       2.936106        79.8955 
 191   0.0000       2.965067        80.6836 
 192   0.0000       2.985794        81.2476 
 193   0.0000       2.987838        81.3032 
 194   0.0000       3.017147        82.1007 
 195   0.0000       3.057060        83.1868 
 196   0.0000       3.075438        83.6869 
 197   0.0000       3.105047        84.4926 
 198   0.0000       3.111596        84.6708 
 199   0.0000       3.149552        85.7037 
 200   0.0000       3.153610        85.8141 
 201   0.0000       3.154373        85.8348 

                    ********************************
                    * MULLIKEN POPULATION ANALYSIS *
                    ********************************

-----------------------
MULLIKEN ATOMIC CHARGES
-----------------------
   0 C :    0.062844
   1 H :   -0.005341
   2 H :   -0.005309
   3 H :   -0.005115
   4 C :    0.004131
   5 H :   -0.013782
   6 H :   -0.013781
   7 C :    0.016058
   8 H :   -0.019568
   9 H :   -0.019561
  10 C :    0.042417
  11 H :   -0.021496
  12 H :   -0.021495
  13 C :    0.042417
  14 H :   -0.021494
  15 H :   -0.021498
  16 C :    0.016059
  17 H :   -0.019564
  18 H :   -0.019566
  19 C :    0.004130
  20 H :   -0.013781
  21 H :   -0.013783
  22 C :    0.062844
  23 H :   -0.005325
  24 H :   -0.005115
  25 H :   -0.005324
Sum of atomic charges:   -0.0000000

--------------------------------
MULLIKEN REDUCED ORBITAL CHARGES
--------------------------------
  0 C s       :     2.932784  s :     2.932784
      pz      :     0.992717  p :     2.973965
      px      :     0.983229
      py      :     0.998019
      dz2     :     0.008471  d :     0.030407
      dxz     :     0.003709
      dyz     :     0.005980
      dx2y2   :     0.009080
      dxy     :     0.003168
  1 H s       :     0.980668  s :     0.980668
      pz      :     0.004841  p :     0.024674
      px      :     0.006394
      py      :     0.013439
  2 H s       :     0.980634  s :     0.980634
      pz      :     0.011072  p :     0.024674
      px      :     0.006394
      py      :     0.007208
  3 H s       :     0.980683  s :     0.980683
      pz      :     0.004867  p :     0.024432
      px      :     0.014352
      py      :     0.005213
  4 C s       :     2.996400  s :     2.996400
      pz      :     0.991964  p :     2.961689
      px      :     0.980815
      py      :     0.988909
      dz2     :     0.008888  d :     0.037780
      dxz     :     0.006960
      dyz     :     0.006452
      dx2y2   :     0.008976
      dxy     :     0.006504
  5 H s       :     0.990339  s :     0.990339
      pz      :     0.004831  p :     0.023443
      px      :     0.005542
      py      :     0.013070
  6 H s       :     0.990338  s :     0.990338
      pz      :     0.010683  p :     0.023443
      px      :     0.005561
      py      :     0.007200
  7 C s       :     2.992044  s :     2.992044
      pz      :     0.999088  p :     2.954631
      px      :     0.968728
      py      :     0.986815
      dz2     :     0.008882  d :     0.037267
      dxz     :     0.006710
      dyz     :     0.006384
      dx2y2   :     0.008857
      dxy     :     0.006434
  8 H s       :     0.996025  s :     0.996025
      pz      :     0.010885  p :     0.023544
      px      :     0.005517
      py      :     0.007142
  9 H s       :     0.996018  s :     0.996018
      pz      :     0.004746  p :     0.023543
      px      :     0.005499
      py      :     0.013298
 10 C s       :     2.967705  s :     2.967705
      pz      :     0.990728  p :     2.952604
      px      :     0.977605
      py      :     0.984270
      dz2     :     0.008850  d :     0.037275
      dxz     :     0.006755
      dyz     :     0.006385
      dx2y2   :     0.008833
      dxy     :     0.006452
 11 H s       :     0.997920  s :     0.997920
      pz      :     0.010845  p :     0.023576
      px      :     0.005559
      py      :     0.007172
 12 H s       :     0.997919  s :     0.997919
      pz      :     0.004802  p :     0.023576
      px      :     0.005540
      py      :     0.013234
 13 C s       :     2.967705  s :     2.967705
      pz      :     0.990725  p :     2.952604
      px      :     0.977605
      py      :     0.984274
      dz2     :     0.008850  d :     0.037275
      dxz     :     0.006755
      dyz     :     0.006385
      dx2y2   :     0.008833
      dxy     :     0.006452
 14 H s       :     0.997918  s :     0.997918
      pz      :     0.010845  p :     0.023576
      px      :     0.005559
      py      :     0.007172
 15 H s       :     0.997922  s :     0.997922
      pz      :     0.004802  p :     0.023576
      px      :     0.005540
      py      :     0.013234
 16 C s       :     2.992045  s :     2.992045
      pz      :     0.999099  p :     2.954630
      px      :     0.968727
      py      :     0.986804
      dz2     :     0.008883  d :     0.037267
      dxz     :     0.006711
      dyz     :     0.006383
      dx2y2   :     0.008858
      dxy     :     0.006433
 17 H s       :     0.996020  s :     0.996020
      pz      :     0.010885  p :     0.023544
      px      :     0.005517
      py      :     0.007142
 18 H s       :     0.996022  s :     0.996022
      pz      :     0.004746  p :     0.023544
      px      :     0.005499
      py      :     0.013299
 19 C s       :     2.996401  s :     2.996401
      pz      :     0.991951  p :     2.961689
      px      :     0.980815
      py      :     0.988923
      dz2     :     0.008890  d :     0.037780
      dxz     :     0.006961
      dyz     :     0.006448
      dx2y2   :     0.008979
      dxy     :     0.006503
 20 H s       :     0.990337  s :     0.990337
      pz      :     0.010685  p :     0.023443
      px      :     0.005561
      py      :     0.007196
 21 H s       :     0.990339  s :     0.990339
      pz      :     0.004832  p :     0.023443
      px      :     0.005541
      py      :     0.013070
 22 C s       :     2.932783  s :     2.932783
      pz      :     0.992716  p :     2.973965
      px      :     0.983229
      py      :     0.998020
      dz2     :     0.008472  d :     0.030407
      dxz     :     0.003722
      dyz     :     0.005963
      dx2y2   :     0.009095
      dxy     :     0.003154
 23 H s       :     0.980652  s :     0.980652
      pz      :     0.011075  p :     0.024674
      px      :     0.006403
      py      :     0.007196
 24 H s       :     0.980683  s :     0.980683
      pz      :     0.004868  p :     0.024432
      px      :     0.014352
      py      :     0.005213
 25 H s       :     0.980651  s :     0.980651
      pz      :     0.004841  p :     0.024674
      px      :     0.006385
      py      :     0.013447


                     *******************************
                     * LOEWDIN POPULATION ANALYSIS *
                     *******************************

----------------------
LOEWDIN ATOMIC CHARGES
----------------------
   0 C :   -0.045514
   1 H :    0.015545
   2 H :    0.015554
   3 H :    0.015506
   4 C :   -0.025677
   5 H :    0.011873
   6 H :    0.011869
   7 C :   -0.022542
   8 H :    0.011158
   9 H :    0.011157
  10 C :   -0.021335
  11 H :    0.011204
  12 H :    0.011203
  13 C :   -0.021335
  14 H :    0.011204
  15 H :    0.011203
  16 C :   -0.022542
  17 H :    0.011158
  18 H :    0.011157
  19 C :   -0.025677
  20 H :    0.011871
  21 H :    0.011871
  22 C :   -0.045514
  23 H :    0.015549
  24 H :    0.015506
  25 H :    0.015549

-------------------------------
LOEWDIN REDUCED ORBITAL CHARGES
-------------------------------
  0 C s       :     2.820094  s :     2.820094
      pz      :     1.038476  p :     3.149900
      px      :     1.055503
      py      :     1.055920
      dz2     :     0.020219  d :     0.075520
      dxz     :     0.009404
      dyz     :     0.015463
      dx2y2   :     0.022494
      dxy     :     0.007939
  1 H s       :     0.915654  s :     0.915654
      pz      :     0.014365  p :     0.068801
      px      :     0.016665
      py      :     0.037771
  2 H s       :     0.915646  s :     0.915646
      pz      :     0.032458  p :     0.068801
      px      :     0.016667
      py      :     0.019675
  3 H s       :     0.915252  s :     0.915252
      pz      :     0.014807  p :     0.069242
      px      :     0.040504
      py      :     0.013932
  4 C s       :     2.827753  s :     2.827753
      pz      :     1.034364  p :     3.107293
      px      :     1.020880
      py      :     1.052048
      dz2     :     0.021486  d :     0.090631
      dxz     :     0.015309
      dyz     :     0.016658
      dx2y2   :     0.023221
      dxy     :     0.013957
  5 H s       :     0.918416  s :     0.918416
      pz      :     0.014109  p :     0.069711
      px      :     0.017772
      py      :     0.037830
  6 H s       :     0.918421  s :     0.918421
      pz      :     0.032281  p :     0.069710
      px      :     0.017826
      py      :     0.019603
  7 C s       :     2.828957  s :     2.828957
      pz      :     1.035625  p :     3.102940
      px      :     1.015487
      py      :     1.051828
      dz2     :     0.021467  d :     0.090646
      dxz     :     0.015309
      dyz     :     0.016520
      dx2y2   :     0.023370
      dxy     :     0.013980
  8 H s       :     0.918891  s :     0.918891
      pz      :     0.032601  p :     0.069951
      px      :     0.017795
      py      :     0.019554
  9 H s       :     0.918893  s :     0.918893
      pz      :     0.014192  p :     0.069950
      px      :     0.017738
      py      :     0.038019
 10 C s       :     2.827605  s :     2.827605
      pz      :     1.035118  p :     3.103052
      px      :     1.016231
      py      :     1.051702
      dz2     :     0.021412  d :     0.090679
      dxz     :     0.015440
      dyz     :     0.016568
      dx2y2   :     0.023229
      dxy     :     0.014031
 11 H s       :     0.918840  s :     0.918840
      pz      :     0.032613  p :     0.069956
      px      :     0.017826
      py      :     0.019518
 12 H s       :     0.918842  s :     0.918842
      pz      :     0.014151  p :     0.069956
      px      :     0.017768
      py      :     0.038037
 13 C s       :     2.827605  s :     2.827605
      pz      :     1.035117  p :     3.103052
      px      :     1.016231
      py      :     1.051703
      dz2     :     0.021412  d :     0.090679
      dxz     :     0.015440
      dyz     :     0.016568
      dx2y2   :     0.023229
      dxy     :     0.014031
 14 H s       :     0.918840  s :     0.918840
      pz      :     0.032613  p :     0.069956
      px      :     0.017826
      py      :     0.019518
 15 H s       :     0.918842  s :     0.918842
      pz      :     0.014151  p :     0.069956
      px      :     0.017768
      py      :     0.038037
 16 C s       :     2.828957  s :     2.828957
      pz      :     1.035627  p :     3.102940
      px      :     1.015487
      py      :     1.051826
      dz2     :     0.021467  d :     0.090646
      dxz     :     0.015310
      dyz     :     0.016518
      dx2y2   :     0.023372
      dxy     :     0.013979
 17 H s       :     0.918892  s :     0.918892
      pz      :     0.032602  p :     0.069950
      px      :     0.017796
      py      :     0.019553
 18 H s       :     0.918892  s :     0.918892
      pz      :     0.014192  p :     0.069950
      px      :     0.017738
      py      :     0.038020
 19 C s       :     2.827753  s :     2.827753
      pz      :     1.034374  p :     3.107293
      px      :     1.020880
      py      :     1.052038
      dz2     :     0.021488  d :     0.090631
      dxz     :     0.015311
      dyz     :     0.016651
      dx2y2   :     0.023226
      dxy     :     0.013955
 20 H s       :     0.918418  s :     0.918418
      pz      :     0.032289  p :     0.069710
      px      :     0.017827
      py      :     0.019594
 21 H s       :     0.918419  s :     0.918419
      pz      :     0.014109  p :     0.069710
      px      :     0.017770
      py      :     0.037831
 22 C s       :     2.820094  s :     2.820094
      pz      :     1.038486  p :     3.149900
      px      :     1.055503
      py      :     1.055910
      dz2     :     0.020222  d :     0.075520
      dxz     :     0.009440
      dyz     :     0.015423
      dx2y2   :     0.022531
      dxy     :     0.007904
 23 H s       :     0.915650  s :     0.915650
      pz      :     0.032466  p :     0.068801
      px      :     0.016694
      py      :     0.019640
 24 H s       :     0.915252  s :     0.915252
      pz      :     0.014806  p :     0.069242
      px      :     0.040504
      py      :     0.013933
 25 H s       :     0.915650  s :     0.915650
      pz      :     0.014365  p :     0.068801
      px      :     0.016638
      py      :     0.037799


                      *****************************
                      * MAYER POPULATION ANALYSIS *
                      *****************************

  NA   - Mulliken gross atomic population
  ZA   - Total nuclear charge
  QA   - Mulliken gross atomic charge
  VA   - Mayer's total valence
  BVA  - Mayer's bonded valence
  FA   - Mayer's free valence

  ATOM       NA         ZA         QA         VA         BVA        FA
  0 C      5.9372     6.0000     0.0628     4.0139     4.0139     0.0000
  1 H      1.0053     1.0000    -0.0053     0.9917     0.9917     0.0000
  2 H      1.0053     1.0000    -0.0053     0.9916     0.9916     0.0000
  3 H      1.0051     1.0000    -0.0051     0.9831     0.9831     0.0000
  4 C      5.9959     6.0000     0.0041     4.1223     4.1223    -0.0000
  5 H      1.0138     1.0000    -0.0138     0.9780     0.9780    -0.0000
  6 H      1.0138     1.0000    -0.0138     0.9780     0.9780    -0.0000
  7 C      5.9839     6.0000     0.0161     4.0919     4.0919    -0.0000
  8 H      1.0196     1.0000    -0.0196     0.9833     0.9833     0.0000
  9 H      1.0196     1.0000    -0.0196     0.9833     0.9833     0.0000
 10 C      5.9576     6.0000     0.0424     4.0776     4.0776     0.0000
 11 H      1.0215     1.0000    -0.0215     0.9841     0.9841     0.0000
 12 H      1.0215     1.0000    -0.0215     0.9841     0.9841     0.0000
 13 C      5.9576     6.0000     0.0424     4.0776     4.0776     0.0000
 14 H      1.0215     1.0000    -0.0215     0.9841     0.9841     0.0000
 15 H      1.0215     1.0000    -0.0215     0.9841     0.9841    -0.0000
 16 C      5.9839     6.0000     0.0161     4.0919     4.0919    -0.0000
 17 H      1.0196     1.0000    -0.0196     0.9833     0.9833    -0.0000
 18 H      1.0196     1.0000    -0.0196     0.9833     0.9833     0.0000
 19 C      5.9959     6.0000     0.0041     4.1223     4.1223    -0.0000
 20 H      1.0138     1.0000    -0.0138     0.9780     0.9780    -0.0000
 21 H      1.0138     1.0000    -0.0138     0.9780     0.9780     0.0000
 22 C      5.9372     6.0000     0.0628     4.0139     4.0139    -0.0000
 23 H      1.0053     1.0000    -0.0053     0.9916     0.9916    -0.0000
 24 H      1.0051     1.0000    -0.0051     0.9831     0.9831    -0.0000
 25 H      1.0053     1.0000    -0.0053     0.9916     0.9916     0.0000

  Mayer bond orders larger than 0.100000
B(  0-C ,  1-H ) :   0.9694 B(  0-C ,  2-H ) :   0.9694 B(  0-C ,  3-H ) :   0.9631 
B(  0-C ,  4-C ) :   1.1051 B(  4-C ,  5-H ) :   0.9455 B(  4-C ,  6-H ) :   0.9455 
B(  4-C ,  7-C ) :   1.0909 B(  7-C ,  8-H ) :   0.9425 B(  7-C ,  9-H ) :   0.9425 
B(  7-C , 10-C ) :   1.0884 B( 10-C , 11-H ) :   0.9379 B( 10-C , 12-H ) :   0.9379 
B( 10-C , 13-C ) :   1.0894 B( 13-C , 14-H ) :   0.9379 B( 13-C , 15-H ) :   0.9379 
B( 13-C , 16-C ) :   1.0884 B( 16-C , 17-H ) :   0.9425 B( 16-C , 18-H ) :   0.9425 
B( 16-C , 19-C ) :   1.0909 B( 19-C , 20-H ) :   0.9455 B( 19-C , 21-H ) :   0.9455 
B( 19-C , 22-C ) :   1.1051 B( 22-C , 23-H ) :   0.9694 B( 22-C , 24-H ) :   0.9631 
B( 22-C , 25-H ) :   0.9694 

-------
TIMINGS
-------

Total SCF time: 0 days 0 hours 0 min 22 sec 

Total time                  ....      22.528 sec
Sum of individual times     ....      22.292 sec  ( 99.0%)

Fock matrix formation       ....      15.718 sec  ( 69.8%)
  XC integration            ....       5.493 sec  ( 34.9% of F)
    Basis function eval.    ....       2.623 sec  ( 47.8% of XC)
    Density eval.           ....       1.146 sec  ( 20.9% of XC)
    XC-Functional eval.     ....       0.445 sec  (  8.1% of XC)
    XC-Potential eval.      ....       1.069 sec  ( 19.5% of XC)
Diagonalization             ....       0.007 sec  (  0.0%)
Density matrix formation    ....       0.001 sec  (  0.0%)
Population analysis         ....       0.008 sec  (  0.0%)
Initial guess               ....       0.007 sec  (  0.0%)
Orbital Transformation      ....       0.000 sec  (  0.0%)
Orbital Orthonormalization  ....       0.004 sec  (  0.0%)
DIIS solution               ....       0.002 sec  (  0.0%)
SOSCF solution              ....       0.005 sec  (  0.0%)
Grid generation             ....       6.545 sec  ( 29.1%)

-------------------------   --------------------
FINAL SINGLE POINT ENERGY      -315.464829798664
-------------------------   --------------------


                            ***************************************
                            *     ORCA property calculations      *
                            ***************************************

                                    ---------------------
                                    Active property flags
                                    ---------------------
   (+) Dipole Moment


------------------------------------------------------------------------------
                       ORCA ELECTRIC PROPERTIES CALCULATION
------------------------------------------------------------------------------

Dipole Moment Calculation                       ... on
Quadrupole Moment Calculation                   ... off
Polarizability Calculation                      ... off
GBWName                                         ... test2-cim.gbw
Electron density file                           ... test2-cim.scfp
The origin for moment calculation is the CENTER OF MASS  = (-2.810227, -0.217679  4.755795)

-------------
DIPOLE MOMENT
-------------
                                X             Y             Z
Electronic contribution:      0.00000      -0.00024       0.00014
Nuclear contribution   :     -0.00000       0.00024      -0.00014
                        -----------------------------------------
Total Dipole Moment    :     -0.00000       0.00000      -0.00000
                        -----------------------------------------
Magnitude (a.u.)       :      0.00001
Magnitude (Debye)      :      0.00001



--------------------
Rotational spectrum 
--------------------
 
Rotational constants in cm-1:     0.349628     0.016837     0.016450 
Rotational constants in MHz : 10481.591983   504.772281   493.149909 

 Dipole components along the rotational axes: 
x,y,z [a.u.] :    -0.000000    -0.000000    -0.000005 
x,y,z [Debye]:    -0.000000    -0.000000    -0.000013 

 

Timings for individual modules:

Sum of individual times         ...       22.850 sec (=   0.381 min)
GTO integral calculation        ...        0.285 sec (=   0.005 min)   1.2 %
SCF iterations                  ...       22.565 sec (=   0.376 min)  98.8 %


                 $$$$$$$$$$$$$$$$  JOB NUMBER  2 $$$$$$$$$$$$$$


                       ****************************
                       * Single Point Calculation *
                       ****************************

---------------------------------
CARTESIAN COORDINATES (ANGSTROEM)
---------------------------------
  C     -4.823789   -1.563877    0.000000
  H     -4.467134   -2.572687    0.000000
  H     -4.467116   -1.059478   -0.873651
  H     -5.893789   -1.563863    0.000000
  C     -4.310446   -0.837920    1.257405
  H     -4.665503    0.171453    1.256427
  H     -4.668715   -1.341189    2.131055
  C     -2.770449   -0.840377    1.258814
  H     -2.412180   -0.337435    0.384975
  H     -2.415393   -1.849749    1.260167
  C     -2.257106   -0.113951    2.515948
  H     -2.615443   -0.616846    3.389785
  H     -2.612095    0.895445    2.514553
  C     -0.717109   -0.116511    2.517416
  H     -0.358773    0.386376    1.643574
  H     -0.362121   -1.125907    2.518820
  C     -0.203767    0.609925    3.774544
  H     -0.562105    0.107039    4.648385
  H     -0.558754    1.619322    3.773139
  C      1.336230    0.607364    3.776013
  H      1.694568    1.110251    2.902172
  H      1.691218   -0.402033    3.777416
  C      1.849573    1.333797    5.033142
  H      1.491236    0.830909    5.906983
  H      2.919571    1.332019    5.034162
  H      1.494585    2.343194    5.031741

----------------------------
CARTESIAN COORDINATES (A.U.)
----------------------------
  NO LB      ZA    FRAG     MASS         X           Y           Z
   0 C     6.0000    0    12.011   -9.115639   -2.955299    0.000000
   1 H     1.0000    0     1.008   -8.441660   -4.861673    0.000000
   2 H     1.0000    0     1.008   -8.441625   -2.002124   -1.650962
   3 H     1.0000    0     1.008  -11.137646   -2.955274    0.000000
   4 C     6.0000    0    12.011   -8.145563   -1.583440    2.376151
   5 H     1.0000    0     1.008   -8.816522    0.323999    2.374304
   6 H     1.0000    0     1.008   -8.822594   -2.534480    4.027110
   7 C     6.0000    0    12.011   -5.235390   -1.588082    2.378813
   8 H     1.0000    0     1.008   -4.558360   -0.637659    0.727498
   9 H     1.0000    0     1.008   -4.564431   -3.495520    2.381371
  10 C     6.0000    0    12.011   -4.265313   -0.215337    4.754452
  11 H     1.0000    0     1.008   -4.942471   -1.165669    6.405766
  12 H     1.0000    0     1.008   -4.936144    1.692146    4.751816
  13 C     6.0000    0    12.011   -1.355140   -0.220174    4.757227
  14 H     1.0000    0     1.008   -0.677983    0.730144    3.105904
  15 H     1.0000    0     1.008   -0.684309   -2.127656    4.759879
  16 C     6.0000    0    12.011   -0.385063    1.152592    7.132854
  17 H     1.0000    0     1.008   -1.062224    0.202275    8.784176
  18 H     1.0000    0     1.008   -1.055891    3.060076    7.130200
  19 C     6.0000    0    12.011    2.525110    1.147751    7.135631
  20 H     1.0000    0     1.008    3.202269    2.098070    5.484310
  21 H     1.0000    0     1.008    3.195938   -0.759733    7.138282
  22 C     6.0000    0    12.011    3.495186    2.520512    9.511260
  23 H     1.0000    0     1.008    2.818028    1.570191   11.162581
  24 H     1.0000    0     1.008    5.517190    2.517151    9.513188
  25 H     1.0000    0     1.008    2.824356    4.427995    9.508612

--------------------------------
INTERNAL COORDINATES (ANGSTROEM)
--------------------------------
 C      0   0   0     0.000000000000     0.00000000     0.00000000
 H      1   0   0     1.069999995984     0.00000000     0.00000000
 H      1   2   0     1.069999996412   109.47120272     0.00000000
 H      1   2   3     1.070000000081   109.47123145   119.99999264
 C      1   2   3     1.539999999795   109.47120251   239.99998515
 H      5   1   2     1.070000000952   109.47120230   179.88890033
 H      5   1   2     1.069999999118   109.47120275   299.88891486
 C      5   1   2     1.539999993251   109.47123127    59.88890783
 H      8   5   1     1.069999996698   109.47120316    59.97860807
 H      8   5   1     1.069999996959   109.47123169   299.97861500
 C      8   5   1     1.540000008383   109.47120251   179.97862274
 H     11   8   5     1.069999996583   109.47120246    59.99528586
 H     11   8   5     1.070000004750   109.47123088   299.99529357
 C     11   8   5     1.539999996802   109.47120271   179.99530096
 H     14  11   8     1.070000002506   109.47120253    59.99949653
 H     14  11   8     1.070000004252   109.47123140   299.99950441
 C     14  11   8     1.539999992988   109.47120277   179.99951180
 H     17  14  11     1.069999993487   109.47120289    59.99988436
 H     17  14  11     1.070000004456   109.47123099   299.99989184
 C     17  14  11     1.540000001681   109.47120298   179.99989956
 H     20  17  14     1.069999997607   109.47120229    60.00008529
 H     20  17  14     1.070000003141   109.47123097   300.00009340
 C     20  17  14     1.539999992060   109.47120280   180.00010078
 H     23  20  17     1.069999999083   109.47120286    60.00008478
 H     23  20  17     1.070000004095   109.47120251   180.00009991
 H     23  20  17     1.069999997594   109.47123133   300.00009246

---------------------------
INTERNAL COORDINATES (A.U.)
---------------------------
 C      0   0   0     0.000000000000     0.00000000     0.00000000
 H      1   0   0     2.022006955706     0.00000000     0.00000000
 H      1   2   0     2.022006956515   109.47120272     0.00000000
 H      1   2   3     2.022006963449   109.47123145   119.99999264
 C      1   2   3     2.910178245851   109.47120251   239.99998515
 H      5   1   2     2.022006965094   109.47120230   179.88890033
 H      5   1   2     2.022006961628   109.47120275   299.88891486
 C      5   1   2     2.910178233485   109.47123127    59.88890783
 H      8   5   1     2.022006957056   109.47120316    59.97860807
 H      8   5   1     2.022006957550   109.47123169   299.97861500
 C      8   5   1     2.910178262080   109.47120251   179.97862274
 H     11   8   5     2.022006956838   109.47120246    59.99528586
 H     11   8   5     2.022006972272   109.47123088   299.99529357
 C     11   8   5     2.910178240196   109.47120271   179.99530096
 H     14  11   8     2.022006968032   109.47120253    59.99949653
 H     14  11   8     2.022006971332   109.47123140   299.99950441
 C     14  11   8     2.910178232989   109.47120277   179.99951180
 H     17  14  11     2.022006950987   109.47120289    59.99988436
 H     17  14  11     2.022006971716   109.47123099   299.99989184
 C     17  14  11     2.910178249416   109.47120298   179.99989956
 H     20  17  14     2.022006958774   109.47120229    60.00008529
 H     20  17  14     2.022006969232   109.47123097   300.00009340
 C     20  17  14     2.910178231234   109.47120280   180.00010078
 H     23  20  17     2.022006961562   109.47120286    60.00008478
 H     23  20  17     2.022006971034   109.47120251   180.00009991
 H     23  20  17     2.022006958749   109.47123133   300.00009246

---------------------
BASIS SET INFORMATION
---------------------
There are 2 groups of distinct atoms

 Group   1 Type C   : 7s4p1d contracted to 3s2p1d pattern {511/31/1}
 Group   2 Type H   : 4s1p contracted to 2s1p pattern {31/1}

Atom   0C    basis set group =>   1
Atom   1H    basis set group =>   2
Atom   2H    basis set group =>   2
Atom   3H    basis set group =>   2
Atom   4C    basis set group =>   1
Atom   5H    basis set group =>   2
Atom   6H    basis set group =>   2
Atom   7C    basis set group =>   1
Atom   8H    basis set group =>   2
Atom   9H    basis set group =>   2
Atom  10C    basis set group =>   1
Atom  11H    basis set group =>   2
Atom  12H    basis set group =>   2
Atom  13C    basis set group =>   1
Atom  14H    basis set group =>   2
Atom  15H    basis set group =>   2
Atom  16C    basis set group =>   1
Atom  17H    basis set group =>   2
Atom  18H    basis set group =>   2
Atom  19C    basis set group =>   1
Atom  20H    basis set group =>   2
Atom  21H    basis set group =>   2
Atom  22C    basis set group =>   1
Atom  23H    basis set group =>   2
Atom  24H    basis set group =>   2
Atom  25H    basis set group =>   2
---------------------------------
AUXILIARY/C BASIS SET INFORMATION
---------------------------------
There are 2 groups of distinct atoms

 Group   1 Type C   : 8s6p5d3f contracted to 6s5p4d1f pattern {311111/21111/2111/3}
 Group   2 Type H   : 4s3p2d contracted to 3s2p1d pattern {211/21/2}

Atom   0C    basis set group =>   1
Atom   1H    basis set group =>   2
Atom   2H    basis set group =>   2
Atom   3H    basis set group =>   2
Atom   4C    basis set group =>   1
Atom   5H    basis set group =>   2
Atom   6H    basis set group =>   2
Atom   7C    basis set group =>   1
Atom   8H    basis set group =>   2
Atom   9H    basis set group =>   2
Atom  10C    basis set group =>   1
Atom  11H    basis set group =>   2
Atom  12H    basis set group =>   2
Atom  13C    basis set group =>   1
Atom  14H    basis set group =>   2
Atom  15H    basis set group =>   2
Atom  16C    basis set group =>   1
Atom  17H    basis set group =>   2
Atom  18H    basis set group =>   2
Atom  19C    basis set group =>   1
Atom  20H    basis set group =>   2
Atom  21H    basis set group =>   2
Atom  22C    basis set group =>   1
Atom  23H    basis set group =>   2
Atom  24H    basis set group =>   2
Atom  25H    basis set group =>   2
------------------------------------------------------------------------------
                           ORCA GTO INTEGRAL CALCULATION
------------------------------------------------------------------------------

                         BASIS SET STATISTICS AND STARTUP INFO

 # of primitive gaussian shells          ...  186
 # of primitive gaussian functions       ...  318
 # of contracted shells                  ...  102
 # of contracted basis functions         ...  202
 Highest angular momentum                ...    2
 Maximum contraction depth               ...    5
 Integral package used                   ... LIBINT
 Integral threshhold            Thresh   ...  1.000e-10
 Primitive cut-off              TCut     ...  1.000e-11


------------------------------ INTEGRAL EVALUATION ----------------------------


 * One electron integrals 
 Pre-screening matrix                    ... done
 Shell pair data                         ... done (   0.002 sec)

-------------------------------------------------------------------------------
                                 ORCA SCF
-------------------------------------------------------------------------------

------------
SCF SETTINGS
------------
Hamiltonian:
 Density Functional     Method          .... DFT(GTOs)
 Exchange Functional    Exchange        .... B88
   X-Alpha parameter    XAlpha          ....  0.666667
   Becke's b parameter  XBeta           ....  0.004200
 Correlation Functional Correlation     .... LYP
 LDA part of GGA corr.  LDAOpt          .... VWN-3
 Gradients option       PostSCFGGA      .... off
 Hybrid DFT is turned on
   Fraction HF Exchange ScalHFX         ....  0.803300
   Scaling of DF-GGA-X  ScalDFX         ....  0.210700
   Scaling of DF-GGA-C  ScalDFC         ....  0.678900
   Scaling of DF-LDA-C  ScalLDAC        ....  0.678900
   Perturbative correction              ....  0.321100
   Density functional embedding theory  .... OFF
   NL short-range parameter             ....  4.800000


General Settings:
 Integral files         IntName         .... test2-cim_job2
 Hartree-Fock type      HFTyp           .... RHF
 Total Charge           Charge          ....    0
 Multiplicity           Mult            ....    1
 Number of Electrons    NEL             ....   66
 Basis Dimension        Dim             ....  202
 Nuclear Repulsion      ENuc            ....    378.3578288967 Eh

Convergence Acceleration:
 DIIS                   CNVDIIS         .... on
   Start iteration      DIISMaxIt       ....    12
   Startup error        DIISStart       ....  0.200000
   # of expansion vecs  DIISMaxEq       ....     5
   Bias factor          DIISBfac        ....   1.050
   Max. coefficient     DIISMaxC        ....  10.000
 Newton-Raphson         CNVNR           .... off
 SOSCF                  CNVSOSCF        .... on
   Start iteration      SOSCFMaxIt      ....   150
   Startup grad/error   SOSCFStart      ....  0.003300
 Level Shifting         CNVShift        .... on
   Level shift para.    LevelShift      ....    0.2500
   Turn off err/grad.   ShiftErr        ....    0.0010
 Zerner damping         CNVZerner       .... off
 Static damping         CNVDamp         .... on
   Fraction old density DampFac         ....    0.7000
   Max. Damping (<1)    DampMax         ....    0.9800
   Min. Damping (>=0)   DampMin         ....    0.0000
   Turn off err/grad.   DampErr         ....    0.1000
 Fernandez-Rico         CNVRico         .... off

SCF Procedure:
 Maximum # iterations   MaxIter         ....   125
 SCF integral mode      SCFMode         .... Direct
   Integral package                     .... LIBINT
 Reset frequency        DirectResetFreq ....    20
 Integral Threshold     Thresh          ....  1.000e-10 Eh
 Primitive CutOff       TCut            ....  1.000e-11 Eh

Convergence Tolerance:
 Convergence Check Mode ConvCheckMode   .... Total+1el-Energy
 Convergence forced     ConvForced      .... 0
 Energy Change          TolE            ....  1.000e-06 Eh
 1-El. energy change                    ....  1.000e-03 Eh
 Orbital Gradient       TolG            ....  5.000e-05
 Orbital Rotation angle TolX            ....  5.000e-05
 DIIS Error             TolErr          ....  1.000e-06


Diagonalization of the overlap matrix:
Smallest eigenvalue                        ... 8.523e-04
Time for diagonalization                   ...    0.007 sec
Threshold for overlap eigenvalues          ... 1.000e-08
Number of eigenvalues below threshold      ... 0
Time for construction of square roots      ...    0.005 sec
Total time needed                          ...    0.012 sec

---------------------
INITIAL GUESS: MOREAD
---------------------
Guess MOs are being read from file: test2-cim.gbw
Input Geometry matches current geometry (good)
Input basis set matches current basis set (good)
MOs were renormalized
MOs were reorthogonalized (Cholesky)
                      ------------------
                      INITIAL GUESS DONE (   0.0 sec)
                      ------------------
-------------------
DFT GRID GENERATION
-------------------

General Integration Accuracy     IntAcc      ...  5.340
Radial Grid Type                 RadialGrid  ... Gauss-Chebyshev
Angular Grid (max. acc.)         AngularGrid ... Lebedev-590
Angular grid pruning method      GridPruning ... 3 (G Style)
Weight generation scheme         WeightScheme... Becke
Basis function cutoff            BFCut       ...    1.0000e-10
Integration weight cutoff        WCut        ...    1.0000e-14
Grids for H and He will be reduced by one unit

# of grid points (after initial pruning)     ... 330884 (   0.2 sec)
# of grid points (after weights+screening)   ... 293848 (   1.5 sec)
nearest neighbour list constructed           ...    0.0 sec
Grid point re-assignment to atoms done       ...    0.1 sec
Grid point division into batches done        ...    2.8 sec
Reduced shell lists constructed in    4.9 sec

Total number of grid points                  ...   293848
Total number of batches                      ...     4602
Average number of points per batch           ...       63
Average number of grid points per atom       ...    11302
Average number of shells per batch           ...    53.59 (52.54%)
Average number of basis functions per batch  ...    99.58 (49.30%)
Average number of large shells per batch     ...    38.44 (71.73%)
Average number of large basis fcns per batch ...    70.17 (70.47%)
Maximum spatial batch extension              ...  15.61, 19.77, 17.01 au
Average spatial batch extension              ...   1.59,  1.64,  1.64 au

Time for grid setup =    6.573 sec

--------------
SCF ITERATIONS
--------------
ITER       Energy         Delta-E        Max-DP      RMS-DP      [F,P]     Damp
               ***  Starting incremental Fock matrix formation  ***
  0   -314.6557775174   0.000000000000 0.01668755  0.00067875  0.0249493 0.7000
  1   -314.6609100629  -0.005132545490 0.01396248  0.00057920  0.0193245 0.7000
                               ***Turning on DIIS***
  2   -314.6647315858  -0.003821522888 0.03469007  0.00146216  0.0148672 0.0000
                      *** Initiating the SOSCF procedure ***
                           *** Shutting down DIIS ***
                      *** Re-Reading the Fockian *** 
                      *** Removing any level shift *** 
ITER      Energy       Delta-E        Grad      Rot      Max-DP    RMS-DP
  3   -314.67446659  -0.0097350051  0.002870  0.002870  0.004641  0.000227
               *** Restarting incremental Fock matrix formation ***
  4   -314.67468215  -0.0002155618  0.000664  0.000678  0.001644  0.000080
  5   -314.67470012  -0.0000179639  0.000303  0.000418  0.000420  0.000024
  6   -314.67470342  -0.0000033017  0.000022  0.000031  0.000035  0.000002
                 **** Energy Check signals convergence ****
              ***Rediagonalizing the Fockian in SOSCF/NRSCF***

               *****************************************************
               *                     SUCCESS                       *
               *           SCF CONVERGED AFTER   7 CYCLES          *
               *****************************************************


----------------
TOTAL SCF ENERGY
----------------

Total Energy       :         -314.67470345 Eh           -8562.73400 eV

Components:
Nuclear Repulsion  :          378.35782890 Eh           10295.63994 eV
Electronic Energy  :         -693.03253234 Eh          -18858.37395 eV
One Electron Energy:        -1171.64282850 Eh          -31882.02221 eV
Two Electron Energy:          478.61029615 Eh           13023.64827 eV

Virial components:
Potential Energy   :         -626.79421201 Eh          -17055.93762 eV
Kinetic Energy     :          312.11950856 Eh            8493.20361 eV
Virial Ratio       :            2.00818659


DFT components:
N(Alpha)           :       32.999986666652 electrons
N(Beta)            :       32.999986666652 electrons
N(Total)           :       65.999973333305 electrons
E(X)               :       -9.500906163125 Eh       
E(C)               :       -1.429405317735 Eh       
E(XC)              :      -10.930311480860 Eh       
DFET-embed. en.    :        0.000000000000 Eh       

---------------
SCF CONVERGENCE
---------------

  Last Energy change         ...   -2.6989e-08  Tolerance :   1.0000e-06
  Last MAX-Density change    ...    1.4027e-05  Tolerance :   1.0000e-05
  Last RMS-Density change    ...    6.5019e-07  Tolerance :   1.0000e-06
  Last Orbital Gradient      ...    5.4816e-06  Tolerance :   5.0000e-05
  Last Orbital Rotation      ...    7.5858e-06  Tolerance :   5.0000e-05

             **** THE GBW FILE WAS UPDATED (test2-cim_job2.gbw) ****
             **** DENSITY FILE WAS UPDATED (test2-cim_job2.scfp) ****
             **** ENERGY FILE WAS UPDATED (test2-cim_job2.en.tmp) ****
             **** THE GBW FILE WAS UPDATED (test2-cim_job2.gbw) ****
             **** DENSITY FILE WAS UPDATED (test2-cim_job2.scfp) ****
----------------
ORBITAL ENERGIES
----------------

  NO   OCC          E(Eh)            E(eV) 
   0   2.0000     -10.971372      -298.5462 
   1   2.0000     -10.971371      -298.5462 
   2   2.0000     -10.969316      -298.4903 
   3   2.0000     -10.969264      -298.4888 
   4   2.0000     -10.968853      -298.4777 
   5   2.0000     -10.968496      -298.4679 
   6   2.0000     -10.966514      -298.4140 
   7   2.0000     -10.966513      -298.4140 
   8   2.0000      -1.026723       -27.9386 
   9   2.0000      -0.998016       -27.1574 
  10   2.0000      -0.951565       -25.8934 
  11   2.0000      -0.891130       -24.2489 
  12   2.0000      -0.822839       -22.3906 
  13   2.0000      -0.763653       -20.7801 
  14   2.0000      -0.748967       -20.3804 
  15   2.0000      -0.742303       -20.1991 
  16   2.0000      -0.636239       -17.3130 
  17   2.0000      -0.610742       -16.6191 
  18   2.0000      -0.572292       -15.5728 
  19   2.0000      -0.569442       -15.4953 
  20   2.0000      -0.550579       -14.9820 
  21   2.0000      -0.532646       -14.4940 
  22   2.0000      -0.528308       -14.3760 
  23   2.0000      -0.508914       -13.8483 
  24   2.0000      -0.488282       -13.2868 
  25   2.0000      -0.471826       -12.8390 
  26   2.0000      -0.461665       -12.5626 
  27   2.0000      -0.458303       -12.4710 
  28   2.0000      -0.451366       -12.2823 
  29   2.0000      -0.450980       -12.2718 
  30   2.0000      -0.449386       -12.2284 
  31   2.0000      -0.440893       -11.9973 
  32   2.0000      -0.387531       -10.5453 
  33   0.0000       0.134760         3.6670 
  34   0.0000       0.144635         3.9357 
  35   0.0000       0.162895         4.4326 
  36   0.0000       0.167463         4.5569 
  37   0.0000       0.169151         4.6028 
  38   0.0000       0.196502         5.3471 
  39   0.0000       0.196682         5.3520 
  40   0.0000       0.198968         5.4142 
  41   0.0000       0.232986         6.3399 
  42   0.0000       0.238976         6.5029 
  43   0.0000       0.239401         6.5144 
  44   0.0000       0.241213         6.5637 
  45   0.0000       0.250479         6.8159 
  46   0.0000       0.261058         7.1037 
  47   0.0000       0.268902         7.3172 
  48   0.0000       0.270744         7.3673 
  49   0.0000       0.303468         8.2578 
  50   0.0000       0.304756         8.2928 
  51   0.0000       0.317250         8.6328 
  52   0.0000       0.320103         8.7104 
  53   0.0000       0.344779         9.3819 
  54   0.0000       0.348491         9.4829 
  55   0.0000       0.385892        10.5006 
  56   0.0000       0.414381        11.2759 
  57   0.0000       0.416720        11.3395 
  58   0.0000       0.509313        13.8591 
  59   0.0000       0.548388        14.9224 
  60   0.0000       0.559108        15.2141 
  61   0.0000       0.567372        15.4390 
  62   0.0000       0.568103        15.4589 
  63   0.0000       0.568270        15.4634 
  64   0.0000       0.588974        16.0268 
  65   0.0000       0.590483        16.0679 
  66   0.0000       0.634256        17.2590 
  67   0.0000       0.640292        17.4232 
  68   0.0000       0.665108        18.0985 
  69   0.0000       0.669868        18.2280 
  70   0.0000       0.731641        19.9090 
  71   0.0000       0.777509        21.1571 
  72   0.0000       0.805481        21.9183 
  73   0.0000       0.812287        22.1035 
  74   0.0000       0.819066        22.2879 
  75   0.0000       0.827968        22.5302 
  76   0.0000       0.841526        22.8991 
  77   0.0000       0.841947        22.9105 
  78   0.0000       0.847422        23.0595 
  79   0.0000       0.851996        23.1840 
  80   0.0000       0.852152        23.1882 
  81   0.0000       0.858525        23.3616 
  82   0.0000       0.862127        23.4597 
  83   0.0000       0.868306        23.6278 
  84   0.0000       0.871012        23.7014 
  85   0.0000       0.877438        23.8763 
  86   0.0000       0.883792        24.0492 
  87   0.0000       0.884162        24.0593 
  88   0.0000       0.890859        24.2415 
  89   0.0000       0.891299        24.2535 
  90   0.0000       0.896937        24.4069 
  91   0.0000       0.902503        24.5583 
  92   0.0000       0.919622        25.0242 
  93   0.0000       0.920451        25.0467 
  94   0.0000       0.926501        25.2114 
  95   0.0000       0.928049        25.2535 
  96   0.0000       0.944048        25.6889 
  97   0.0000       0.956482        26.0272 
  98   0.0000       1.012518        27.5520 
  99   0.0000       1.101064        29.9615 
 100   0.0000       1.172956        31.9178 
 101   0.0000       1.185845        32.2685 
 102   0.0000       1.194014        32.4908 
 103   0.0000       1.210567        32.9412 
 104   0.0000       1.210871        32.9495 
[...]
 178   0.0000       2.897313        78.8399 
 179   0.0000       2.900860        78.9364 
 180   0.0000       2.907304        79.1118 
 181   0.0000       2.933880        79.8349 
 182   0.0000       2.940424        80.0130 
 183   0.0000       2.962754        80.6206 
 184   0.0000       3.083433        83.9045 
 185   0.0000       3.134079        85.2826 
 186   0.0000       3.148277        85.6690 
 187   0.0000       3.160284        85.9957 
 188   0.0000       3.166169        86.1558 
 189   0.0000       3.183816        86.6360 
 190   0.0000       3.196765        86.9884 
 191   0.0000       3.225955        87.7827 
 192   0.0000       3.248807        88.4045 
 193   0.0000       3.249245        88.4164 
 194   0.0000       3.280836        89.2761 
 195   0.0000       3.321334        90.3781 
 196   0.0000       3.340365        90.8960 
 197   0.0000       3.373508        91.7978 
 198   0.0000       3.377426        91.9044 
 199   0.0000       3.415669        92.9451 
 200   0.0000       3.417253        92.9882 
 201   0.0000       3.419550        93.0507 

                    ********************************
                    * MULLIKEN POPULATION ANALYSIS *
                    ********************************

-----------------------
MULLIKEN ATOMIC CHARGES
-----------------------
   0 C :    0.009963
   1 H :    0.016956
   2 H :    0.016992
   3 H :    0.020579
   4 C :   -0.069162
   5 H :    0.016156
   6 H :    0.016156
   7 C :   -0.050041
   8 H :    0.011613
   9 H :    0.011622
  10 C :   -0.021455
  11 H :    0.010309
  12 H :    0.010312
  13 C :   -0.021455
  14 H :    0.010311
  15 H :    0.010310
  16 C :   -0.050041
  17 H :    0.011617
  18 H :    0.011618
  19 C :   -0.069163
  20 H :    0.016156
  21 H :    0.016156
  22 C :    0.009965
  23 H :    0.016974
  24 H :    0.020578
  25 H :    0.016974
Sum of atomic charges:   -0.0000000

--------------------------------
MULLIKEN REDUCED ORBITAL CHARGES
--------------------------------
  0 C s       :     2.989071  s :     2.989071
      pz      :     0.973206  p :     2.964310
      px      :     0.994752
      py      :     0.996352
      dz2     :     0.009954  d :     0.036656
      dxz     :     0.004445
      dyz     :     0.007589
      dx2y2   :     0.010808
      dxy     :     0.003860
  1 H s       :     0.956985  s :     0.956985
      pz      :     0.004134  p :     0.026059
      px      :     0.005937
      py      :     0.015989
  2 H s       :     0.956948  s :     0.956948
      pz      :     0.012753  p :     0.026059
      px      :     0.005937
      py      :     0.007369
  3 H s       :     0.953417  s :     0.953417
      pz      :     0.004199  p :     0.026005
      px      :     0.017376
      py      :     0.004429
  4 C s       :     3.063979  s :     3.063979
      pz      :     0.999992  p :     2.960382
      px      :     0.954861
      py      :     1.005530
      dz2     :     0.010707  d :     0.044801
      dxz     :     0.007546
      dyz     :     0.008206
      dx2y2   :     0.011375
      dxy     :     0.006967
  5 H s       :     0.959276  s :     0.959276
      pz      :     0.003765  p :     0.024568
      px      :     0.005040
      py      :     0.015763
  6 H s       :     0.959276  s :     0.959276
      pz      :     0.012346  p :     0.024568
      px      :     0.005066
      py      :     0.007156
  7 C s       :     3.047951  s :     3.047951
      pz      :     0.996242  p :     2.957749
      px      :     0.960691
      py      :     1.000817
      dz2     :     0.010732  d :     0.044341
      dxz     :     0.007231
      dyz     :     0.008093
      dx2y2   :     0.011403
      dxy     :     0.006882
  8 H s       :     0.963924  s :     0.963924
      pz      :     0.012491  p :     0.024463
      px      :     0.004835
      py      :     0.007137
  9 H s       :     0.963915  s :     0.963915
      pz      :     0.003778  p :     0.024463
      px      :     0.004808
      py      :     0.015876
 10 C s       :     3.025262  s :     3.025262
      pz      :     0.990975  p :     2.951896
      px      :     0.961624
      py      :     0.999297
      dz2     :     0.010682  d :     0.044297
      dxz     :     0.007295
      dyz     :     0.008112
      dx2y2   :     0.011301
      dxy     :     0.006907
 11 H s       :     0.965181  s :     0.965181
      pz      :     0.012460  p :     0.024509
      px      :     0.004907
      py      :     0.007142
 12 H s       :     0.965179  s :     0.965179
      pz      :     0.003795  p :     0.024509
      px      :     0.004880
      py      :     0.015834
 13 C s       :     3.025262  s :     3.025262
      pz      :     0.990972  p :     2.951896
      px      :     0.961624
      py      :     0.999299
      dz2     :     0.010682  d :     0.044297
      dxz     :     0.007295
      dyz     :     0.008112
      dx2y2   :     0.011302
      dxy     :     0.006907
 14 H s       :     0.965179  s :     0.965179
      pz      :     0.012460  p :     0.024509
      px      :     0.004908
      py      :     0.007142
 15 H s       :     0.965181  s :     0.965181
      pz      :     0.003795  p :     0.024509
      px      :     0.004880
      py      :     0.015834
 16 C s       :     3.047951  s :     3.047951
      pz      :     0.996254  p :     2.957750
      px      :     0.960691
      py      :     1.000804
      dz2     :     0.010732  d :     0.044341
      dxz     :     0.007232
      dyz     :     0.008093
      dx2y2   :     0.011403
      dxy     :     0.006881
 17 H s       :     0.963920  s :     0.963920
      pz      :     0.012492  p :     0.024463
      px      :     0.004835
      py      :     0.007136
 18 H s       :     0.963920  s :     0.963920
      pz      :     0.003778  p :     0.024463
      px      :     0.004808
      py      :     0.015877
 19 C s       :     3.063978  s :     3.063978
      pz      :     0.999987  p :     2.960384
      px      :     0.954862
      py      :     1.005535
      dz2     :     0.010708  d :     0.044801
      dxz     :     0.007547
      dyz     :     0.008202
      dx2y2   :     0.011378
      dxy     :     0.006966
 20 H s       :     0.959276  s :     0.959276
      pz      :     0.012350  p :     0.024568
      px      :     0.005067
      py      :     0.007152
 21 H s       :     0.959276  s :     0.959276
      pz      :     0.003766  p :     0.024568
      px      :     0.005039
      py      :     0.015763
 22 C s       :     2.989070  s :     2.989070
      pz      :     0.973211  p :     2.964310
      px      :     0.994752
      py      :     0.996347
      dz2     :     0.009955  d :     0.036656
      dxz     :     0.004462
      dyz     :     0.007570
      dx2y2   :     0.010825
      dxy     :     0.003844
 23 H s       :     0.956967  s :     0.956967
      pz      :     0.012757  p :     0.026059
      px      :     0.005950
      py      :     0.007352
 24 H s       :     0.953417  s :     0.953417
      pz      :     0.004199  p :     0.026005
      px      :     0.017376
      py      :     0.004429
 25 H s       :     0.956967  s :     0.956967
      pz      :     0.004134  p :     0.026059
      px      :     0.005924
      py      :     0.016002


                     *******************************
                     * LOEWDIN POPULATION ANALYSIS *
                     *******************************

----------------------
LOEWDIN ATOMIC CHARGES
----------------------
   0 C :   -0.038931
   1 H :    0.013953
   2 H :    0.013961
   3 H :    0.013816
   4 C :   -0.023759
   5 H :    0.010384
   6 H :    0.010379
   7 C :   -0.020258
   8 H :    0.009742
   9 H :    0.009740
  10 C :   -0.018654
  11 H :    0.009814
  12 H :    0.009813
  13 C :   -0.018654
  14 H :    0.009814
  15 H :    0.009813
  16 C :   -0.020258
  17 H :    0.009741
  18 H :    0.009741
  19 C :   -0.023759
  20 H :    0.010382
  21 H :    0.010382
  22 C :   -0.038930
  23 H :    0.013957
  24 H :    0.013815
  25 H :    0.013957

-------------------------------
LOEWDIN REDUCED ORBITAL CHARGES
-------------------------------
  0 C s       :     2.819504  s :     2.819504
      pz      :     1.034088  p :     3.136009
      px      :     1.050975
      py      :     1.050947
      dz2     :     0.022175  d :     0.083418
      dxz     :     0.010276
      dyz     :     0.017416
      dx2y2   :     0.024742
      dxy     :     0.008810
  1 H s       :     0.916769  s :     0.916769
      pz      :     0.013887  p :     0.069278
      px      :     0.016477
      py      :     0.038914
  2 H s       :     0.916760  s :     0.916760
      pz      :     0.033113  p :     0.069279
      px      :     0.016479
      py      :     0.019687
  3 H s       :     0.916595  s :     0.916595
      pz      :     0.014247  p :     0.069589
      px      :     0.041826
      py      :     0.013516
  4 C s       :     2.827052  s :     2.827052
      pz      :     1.032061  p :     3.098457
      px      :     1.017607
      py      :     1.048790
      dz2     :     0.023413  d :     0.098249
      dxz     :     0.015922
      dyz     :     0.018494
      dx2y2   :     0.025868
      dxy     :     0.014552
  5 H s       :     0.919375  s :     0.919375
      pz      :     0.013852  p :     0.070241
      px      :     0.017523
      py      :     0.038866
  6 H s       :     0.919380  s :     0.919380
      pz      :     0.032926  p :     0.070241
      px      :     0.017581
      py      :     0.019735
  7 C s       :     2.827060  s :     2.827060
      pz      :     1.033297  p :     3.094822
      px      :     1.013144
      py      :     1.048381
      dz2     :     0.023490  d :     0.098377
      dxz     :     0.015888
      dyz     :     0.018414
      dx2y2   :     0.026026
      dxy     :     0.014558
  8 H s       :     0.919829  s :     0.919829
      pz      :     0.033171  p :     0.070429
      px      :     0.017611
      py      :     0.019646
  9 H s       :     0.919832  s :     0.919832
      pz      :     0.013871  p :     0.070428
      px      :     0.017552
      py      :     0.039005
 10 C s       :     2.825563  s :     2.825563
      pz      :     1.032615  p :     3.094638
      px      :     1.013888
      py      :     1.048135
      dz2     :     0.023440  d :     0.098454
      dxz     :     0.016030
      dyz     :     0.018467
      dx2y2   :     0.025899
      dxy     :     0.014617
 11 H s       :     0.919779  s :     0.919779
      pz      :     0.033188  p :     0.070407
      px      :     0.017604
      py      :     0.019615
 12 H s       :     0.919780  s :     0.919780
      pz      :     0.013842  p :     0.070407
      px      :     0.017543
      py      :     0.039021
 13 C s       :     2.825563  s :     2.825563
      pz      :     1.032614  p :     3.094638
      px      :     1.013888
      py      :     1.048136
      dz2     :     0.023440  d :     0.098454
      dxz     :     0.016030
      dyz     :     0.018467
      dx2y2   :     0.025899
      dxy     :     0.014617
 14 H s       :     0.919779  s :     0.919779
      pz      :     0.033188  p :     0.070407
      px      :     0.017604
      py      :     0.019615
 15 H s       :     0.919780  s :     0.919780
      pz      :     0.013842  p :     0.070407
      px      :     0.017543
      py      :     0.039022
 16 C s       :     2.827060  s :     2.827060
      pz      :     1.033298  p :     3.094822
      px      :     1.013144
      py      :     1.048380
      dz2     :     0.023490  d :     0.098377
      dxz     :     0.015890
      dyz     :     0.018412
      dx2y2   :     0.026028
      dxy     :     0.014556
 17 H s       :     0.919830  s :     0.919830
      pz      :     0.033172  p :     0.070429
      px      :     0.017612
      py      :     0.019645
 18 H s       :     0.919830  s :     0.919830
      pz      :     0.013871  p :     0.070429
      px      :     0.017551
      py      :     0.039006
 19 C s       :     2.827052  s :     2.827052
      pz      :     1.032070  p :     3.098458
      px      :     1.017607
      py      :     1.048781
      dz2     :     0.023415  d :     0.098249
      dxz     :     0.015923
      dyz     :     0.018487
      dx2y2   :     0.025873
      dxy     :     0.014550
 20 H s       :     0.919377  s :     0.919377
      pz      :     0.032934  p :     0.070241
      px      :     0.017582
      py      :     0.019725
 21 H s       :     0.919377  s :     0.919377
      pz      :     0.013852  p :     0.070241
      px      :     0.017521
      py      :     0.038867
 22 C s       :     2.819503  s :     2.819503
      pz      :     1.034096  p :     3.136009
      px      :     1.050974
      py      :     1.050939
      dz2     :     0.022177  d :     0.083418
      dxz     :     0.010315
      dyz     :     0.017373
      dx2y2   :     0.024783
      dxy     :     0.008771
 23 H s       :     0.916765  s :     0.916765
      pz      :     0.033121  p :     0.069278
      px      :     0.016508
      py      :     0.019650
 24 H s       :     0.916595  s :     0.916595
      pz      :     0.014246  p :     0.069589
      px      :     0.041826
      py      :     0.013517
 25 H s       :     0.916765  s :     0.916765
      pz      :     0.013887  p :     0.069278
      px      :     0.016448
      py      :     0.038943


                      *****************************
                      * MAYER POPULATION ANALYSIS *
                      *****************************

  NA   - Mulliken gross atomic population
  ZA   - Total nuclear charge
  QA   - Mulliken gross atomic charge
  VA   - Mayer's total valence
  BVA  - Mayer's bonded valence
  FA   - Mayer's free valence

  ATOM       NA         ZA         QA         VA         BVA        FA
  0 C      5.9900     6.0000     0.0100     3.9709     3.9709    -0.0000
  1 H      0.9830     1.0000     0.0170     0.9847     0.9847     0.0000
  2 H      0.9830     1.0000     0.0170     0.9846     0.9846     0.0000
  3 H      0.9794     1.0000     0.0206     0.9807     0.9807     0.0000
  4 C      6.0692     6.0000    -0.0692     4.0132     4.0132     0.0000
  5 H      0.9838     1.0000     0.0162     0.9718     0.9718     0.0000
  6 H      0.9838     1.0000     0.0162     0.9718     0.9718     0.0000
  7 C      6.0500     6.0000    -0.0500     3.9695     3.9695     0.0000
  8 H      0.9884     1.0000     0.0116     0.9769     0.9769     0.0000
  9 H      0.9884     1.0000     0.0116     0.9769     0.9769    -0.0000
 10 C      6.0215     6.0000    -0.0215     3.9712     3.9712    -0.0000
 11 H      0.9897     1.0000     0.0103     0.9778     0.9778     0.0000
 12 H      0.9897     1.0000     0.0103     0.9778     0.9778    -0.0000
 13 C      6.0215     6.0000    -0.0215     3.9712     3.9712     0.0000
 14 H      0.9897     1.0000     0.0103     0.9778     0.9778     0.0000
 15 H      0.9897     1.0000     0.0103     0.9778     0.9778     0.0000
 16 C      6.0500     6.0000    -0.0500     3.9695     3.9695    -0.0000
 17 H      0.9884     1.0000     0.0116     0.9769     0.9769     0.0000
 18 H      0.9884     1.0000     0.0116     0.9769     0.9769     0.0000
 19 C      6.0692     6.0000    -0.0692     4.0132     4.0132     0.0000
 20 H      0.9838     1.0000     0.0162     0.9718     0.9718    -0.0000
 21 H      0.9838     1.0000     0.0162     0.9718     0.9718     0.0000
 22 C      5.9900     6.0000     0.0100     3.9709     3.9709     0.0000
 23 H      0.9830     1.0000     0.0170     0.9847     0.9847     0.0000
 24 H      0.9794     1.0000     0.0206     0.9807     0.9807     0.0000
 25 H      0.9830     1.0000     0.0170     0.9847     0.9847    -0.0000

  Mayer bond orders larger than 0.100000
B(  0-C ,  1-H ) :   0.9817 B(  0-C ,  2-H ) :   0.9817 B(  0-C ,  3-H ) :   0.9820 
B(  0-C ,  4-C ) :   1.0643 B(  4-C ,  5-H ) :   0.9676 B(  4-C ,  6-H ) :   0.9676 
B(  4-C ,  7-C ) :   1.0463 B(  7-C ,  8-H ) :   0.9653 B(  7-C ,  9-H ) :   0.9652 
B(  7-C , 10-C ) :   1.0531 B( 10-C , 11-H ) :   0.9628 B( 10-C , 12-H ) :   0.9628 
B( 10-C , 13-C ) :   1.0557 B( 13-C , 14-H ) :   0.9628 B( 13-C , 15-H ) :   0.9628 
B( 13-C , 16-C ) :   1.0531 B( 16-C , 17-H ) :   0.9653 B( 16-C , 18-H ) :   0.9653 
B( 16-C , 19-C ) :   1.0463 B( 19-C , 20-H ) :   0.9676 B( 19-C , 21-H ) :   0.9676 
B( 19-C , 22-C ) :   1.0643 B( 22-C , 23-H ) :   0.9817 B( 22-C , 24-H ) :   0.9820 
B( 22-C , 25-H ) :   0.9817 




       ****************************************************************
       *               Cluster in Molecule Localization               *
       ****************************************************************

Initial value of the localization sum :  1557.558666
ITERATION   0 : L= 1636.6459808280 DL=  7.91e+01 (AVERAGE_DL)=    0.5134436517 
ITERATION   1 : L= 1639.9692241543 DL=  3.32e+00 (AVERAGE_DL)=    0.1052495974 
ITERATION   2 : L= 1639.9816848700 DL=  1.25e-02 (AVERAGE_DL)=    0.0064448211 
ITERATION   3 : L= 1639.9816999637 DL=  1.51e-05 (AVERAGE_DL)=    0.0002243044 
ITERATION   4 : L= 1639.9816999866 DL=  2.29e-08 (AVERAGE_DL)=    0.0000087447 
LOCALIZATION SUM CONVERGED
Localization                                ...        0.070 sec
Total Time of CIM Initialization             ...        0.080 sec


         ****************************************************************
         * Cluster in Molecule Calculation With Parameter = 0.003000    *
         ****************************************************************


Differential Overlap                        ...        8.284 sec
MO domain construction Time (including DOI) ...        0.000 sec
MO domain reduction  Time                   ...        0.000 sec
AO domain construction Time                 ...        0.001 sec
AO domain Reduction Time                    ...        0.000 sec
Total CIM Pre-construction Time             ...        8.358 sec
Setting basis set  ... ok
Setting aux basis set ... ok
Making MO to PAO map ... ok

 =================================
     There are     3 Subsystems 
 =================================
 Index    No.Basis    No.Central  
     0         172            5
     1         177           10
     2         177           10
 ---------------------------------
 Maximium      177           10
 Average       175            8
 ===============================
-------
TIMINGS
-------

Total SCF time: 0 days 0 hours 1 min 12 sec 

Total time                  ....      72.771 sec
Sum of individual times     ....      63.783 sec  ( 87.6%)

Fock matrix formation       ....      57.131 sec  ( 78.5%)
  XC integration            ....      20.774 sec  ( 36.4% of F)
    Basis function eval.    ....      10.433 sec  ( 50.2% of XC)
    Density eval.           ....       4.435 sec  ( 21.3% of XC)
    XC-Functional eval.     ....       1.799 sec  (  8.7% of XC)
    XC-Potential eval.      ....       3.255 sec  ( 15.7% of XC)
Diagonalization             ....       0.027 sec  (  0.0%)
Density matrix formation    ....       0.004 sec  (  0.0%)
Population analysis         ....       0.008 sec  (  0.0%)
Initial guess               ....       0.008 sec  (  0.0%)
Orbital Transformation      ....       0.000 sec  (  0.0%)
Orbital Orthonormalization  ....       0.005 sec  (  0.0%)
DIIS solution               ....       0.010 sec  (  0.0%)
SOSCF solution              ....       0.021 sec  (  0.0%)
Grid generation             ....       6.573 sec  (  9.0%)

-------------------------   --------------------
FINAL SINGLE POINT ENERGY      -314.674703445186
-------------------------   --------------------


Timings for individual modules:

Sum of individual times         ...       73.101 sec (=   1.218 min)
GTO integral calculation        ...        0.287 sec (=   0.005 min)   0.4 %
SCF iterations                  ...       72.814 sec (=   1.214 min)  99.6 %



                             ****ORCA TERMINATED NORMALLY****
TOTAL RUN TIME: 0 days 0 hours 1 minutes 36 seconds 204 msec
